/*--------------------------------*- C++ -*----------------------------------*\
  =========                 |
  \\      /  F ield         | OpenFOAM: The Open Source CFD Toolbox
   \\    /   O peration     | Website:  https://openfoam.org
    \\  /    A nd           | Version:  10
     \\/     M anipulation  |
\*---------------------------------------------------------------------------*/
FoamFile
{
    format      ascii;
    class       volVectorField;
    location    "0";
    object      C;
}
// * * * * * * * * * * * * * * * * * * * * * * * * * * * * * * * * * * * * * //

dimensions      [0 1 0 0 0 0 0];

internalField   nonuniform List<vector> 
16384
(
(7.8125e-05 -0.00992187 0)
(0.000234375 -0.00992188 5.635e-19)
(0.000390625 -0.00992188 0)
(0.000546875 -0.00992188 2.87774e-19)
(0.000703125 -0.00992188 2.87774e-19)
(0.000859375 -0.00992188 2.87774e-19)
(0.00101562 -0.00992188 0)
(0.00117187 -0.00992187 0)
(0.00132812 -0.00992187 0)
(0.00148438 -0.00992187 0)
(0.00164062 -0.00992187 0)
(0.00179688 -0.00992188 2.87774e-19)
(0.00195312 -0.00992188 0)
(0.00210937 -0.00992188 0)
(0.00226562 -0.00992188 0)
(0.00242187 -0.00992187 0)
(0.00257812 -0.00992188 0)
(0.00273438 -0.00992188 0)
(0.00289063 -0.00992188 0)
(0.00304687 -0.00992187 0)
(0.00320312 -0.00992188 0)
(0.00335937 -0.00992188 0)
(0.00351563 -0.00992188 0)
(0.00367187 -0.00992188 0)
(0.00382812 -0.00992188 0)
(0.00398437 -0.00992187 0)
(0.00414063 -0.00992188 0)
(0.00429688 -0.00992188 0)
(0.00445312 -0.00992188 5.75547e-19)
(0.00460938 -0.00992188 0)
(0.00476562 -0.00992187 0)
(0.00492188 -0.00992188 0)
(0.00507813 -0.00992188 0)
(0.00523438 -0.00992188 0)
(0.00539062 -0.00992187 0)
(0.00554687 -0.00992188 0)
(0.00570312 -0.00992187 0)
(0.00585937 -0.00992188 0)
(0.00601563 -0.00992187 0)
(0.00617187 -0.00992188 0)
(0.00632812 -0.00992187 0)
(0.00648438 -0.00992188 0)
(0.00664062 -0.00992188 0)
(0.00679688 -0.00992188 0)
(0.00695313 -0.00992187 0)
(0.00710938 -0.00992187 0)
(0.00726563 -0.00992188 0)
(0.00742188 -0.00992188 0)
(0.00757812 -0.00992187 0)
(0.00773438 -0.00992188 0)
(0.00789063 -0.00992188 0)
(0.00804688 -0.00992188 0)
(0.00820313 -0.00992188 0)
(0.00835938 -0.00992187 0)
(0.00851563 -0.00992188 0)
(0.00867188 -0.00992188 0)
(0.00882813 -0.00992188 0)
(0.00898437 -0.00992188 0)
(0.00914063 -0.00992188 0)
(0.00929687 -0.00992187 0)
(0.00945312 -0.00992188 0)
(0.00960938 -0.00992188 0)
(0.00976562 -0.00992188 0)
(0.00992187 -0.00992187 0)
(0.0100781 -0.00992188 0)
(0.0102344 -0.00992187 0)
(0.0103906 -0.00992188 0)
(0.0105469 -0.00992188 0)
(0.0107031 -0.00992188 0)
(0.0108594 -0.00992188 0)
(0.0110156 -0.00992188 0)
(0.0111719 -0.00992188 0)
(0.0113281 -0.00992187 5.635e-19)
(0.0114844 -0.00992188 0)
(0.0116406 -0.00992187 0)
(0.0117969 -0.00992188 0)
(0.0119531 -0.00992187 5.635e-19)
(0.0121094 -0.00992188 0)
(0.0122656 -0.00992188 0)
(0.0124219 -0.00992188 0)
(0.0125781 -0.00992187 5.635e-19)
(0.0127344 -0.00992188 0)
(0.0128906 -0.00992187 0)
(0.0130469 -0.00992188 0)
(0.0132031 -0.00992188 0)
(0.0133594 -0.00992187 0)
(0.0135156 -0.00992188 0)
(0.0136719 -0.00992188 0)
(0.0138281 -0.00992188 0)
(0.0139844 -0.00992187 0)
(0.0141406 -0.00992188 0)
(0.0142969 -0.00992188 0)
(0.0144531 -0.00992188 0)
(0.0146094 -0.00992188 0)
(0.0147656 -0.00992188 0)
(0.0149219 -0.00992188 0)
(0.0150781 -0.00992187 0)
(0.0152344 -0.00992187 5.635e-19)
(0.0153906 -0.00992188 0)
(0.0155469 -0.00992188 0)
(0.0157031 -0.00992188 5.635e-19)
(0.0158594 -0.00992188 0)
(0.0160156 -0.00992187 5.635e-19)
(0.0161719 -0.00992188 0)
(0.0163281 -0.00992188 5.635e-19)
(0.0164844 -0.00992188 0)
(0.0166406 -0.00992188 5.635e-19)
(0.0167969 -0.00992188 0)
(0.0169531 -0.00992188 5.635e-19)
(0.0171094 -0.00992188 0)
(0.0172656 -0.00992188 5.635e-19)
(0.0174219 -0.00992188 0)
(0.0175781 -0.00992188 0)
(0.0177344 -0.00992188 5.635e-19)
(0.0178906 -0.00992188 0)
(0.0180469 -0.00992187 5.635e-19)
(0.0182031 -0.00992188 0)
(0.0183594 -0.00992188 5.635e-19)
(0.0185156 -0.00992188 0)
(0.0186719 -0.00992187 5.635e-19)
(0.0188281 -0.00992188 0)
(0.0189844 -0.00992188 5.635e-19)
(0.0191406 -0.00992188 0)
(0.0192969 -0.00992187 5.635e-19)
(0.0194531 -0.00992188 0)
(0.0196094 -0.00992188 5.635e-19)
(0.0197656 -0.00992188 0)
(0.0199219 -0.00992187 5.635e-19)
(7.8125e-05 -0.00976562 0)
(0.000234375 -0.00976562 5.75547e-19)
(0.000390625 -0.00976562 0)
(0.000546875 -0.00976562 2.9982e-19)
(0.000703125 -0.00976562 2.9982e-19)
(0.000859375 -0.00976562 2.9982e-19)
(0.00101563 -0.00976562 0)
(0.00117187 -0.00976562 0)
(0.00132812 -0.00976562 0)
(0.00148438 -0.00976562 0)
(0.00164062 -0.00976562 0)
(0.00179687 -0.00976562 2.9982e-19)
(0.00195312 -0.00976562 0)
(0.00210938 -0.00976563 0)
(0.00226562 -0.00976562 0)
(0.00242187 -0.00976562 0)
(0.00257812 -0.00976562 0)
(0.00273437 -0.00976562 0)
(0.00289062 -0.00976562 0)
(0.00304687 -0.00976562 0)
(0.00320312 -0.00976562 0)
(0.00335938 -0.00976562 0)
(0.00351563 -0.00976562 0)
(0.00367187 -0.00976562 0)
(0.00382812 -0.00976562 0)
(0.00398438 -0.00976562 0)
(0.00414063 -0.00976562 0)
(0.00429688 -0.00976562 0)
(0.00445313 -0.00976562 5.99641e-19)
(0.00460937 -0.00976562 0)
(0.00476563 -0.00976563 0)
(0.00492188 -0.00976562 0)
(0.00507812 -0.00976562 0)
(0.00523438 -0.00976562 0)
(0.00539062 -0.00976562 0)
(0.00554688 -0.00976562 0)
(0.00570313 -0.00976562 0)
(0.00585938 -0.00976562 0)
(0.00601563 -0.00976562 0)
(0.00617187 -0.00976562 0)
(0.00632812 -0.00976562 0)
(0.00648438 -0.00976562 0)
(0.00664063 -0.00976562 0)
(0.00679688 -0.00976562 0)
(0.00695313 -0.00976562 0)
(0.00710938 -0.00976563 0)
(0.00726563 -0.00976562 0)
(0.00742187 -0.00976562 0)
(0.00757813 -0.00976562 0)
(0.00773437 -0.00976562 0)
(0.00789063 -0.00976562 0)
(0.00804688 -0.00976562 0)
(0.00820313 -0.00976562 0)
(0.00835938 -0.00976562 0)
(0.00851563 -0.00976562 0)
(0.00867188 -0.00976562 0)
(0.00882813 -0.00976562 0)
(0.00898438 -0.00976562 0)
(0.00914062 -0.00976562 0)
(0.00929688 -0.00976562 0)
(0.00945312 -0.00976562 0)
(0.00960937 -0.00976562 0)
(0.00976562 -0.00976562 0)
(0.00992188 -0.00976562 0)
(0.0100781 -0.00976562 0)
(0.0102344 -0.00976562 0)
(0.0103906 -0.00976562 0)
(0.0105469 -0.00976562 0)
(0.0107031 -0.00976562 0)
(0.0108594 -0.00976562 0)
(0.0110156 -0.00976562 0)
(0.0111719 -0.00976562 0)
(0.0113281 -0.00976562 5.75547e-19)
(0.0114844 -0.00976562 0)
(0.0116406 -0.00976562 0)
(0.0117969 -0.00976562 0)
(0.0119531 -0.00976562 5.75547e-19)
(0.0121094 -0.00976562 0)
(0.0122656 -0.00976562 0)
(0.0124219 -0.00976562 0)
(0.0125781 -0.00976562 5.75547e-19)
(0.0127344 -0.00976562 0)
(0.0128906 -0.00976562 0)
(0.0130469 -0.00976562 0)
(0.0132031 -0.00976562 0)
(0.0133594 -0.00976563 0)
(0.0135156 -0.00976562 0)
(0.0136719 -0.00976562 0)
(0.0138281 -0.00976562 0)
(0.0139844 -0.00976562 0)
(0.0141406 -0.00976562 0)
(0.0142969 -0.00976562 0)
(0.0144531 -0.00976562 0)
(0.0146094 -0.00976562 0)
(0.0147656 -0.00976562 0)
(0.0149219 -0.00976562 0)
(0.0150781 -0.00976562 0)
(0.0152344 -0.00976562 5.75547e-19)
(0.0153906 -0.00976562 0)
(0.0155469 -0.00976562 0)
(0.0157031 -0.00976562 5.75547e-19)
(0.0158594 -0.00976562 0)
(0.0160156 -0.00976562 5.75547e-19)
(0.0161719 -0.00976562 0)
(0.0163281 -0.00976562 5.75547e-19)
(0.0164844 -0.00976562 0)
(0.0166406 -0.00976562 5.75547e-19)
(0.0167969 -0.00976562 0)
(0.0169531 -0.00976562 5.75547e-19)
(0.0171094 -0.00976562 0)
(0.0172656 -0.00976562 5.75547e-19)
(0.0174219 -0.00976562 0)
(0.0175781 -0.00976562 0)
(0.0177344 -0.00976562 5.75547e-19)
(0.0178906 -0.00976562 0)
(0.0180469 -0.00976562 5.75547e-19)
(0.0182031 -0.00976562 0)
(0.0183594 -0.00976562 5.75547e-19)
(0.0185156 -0.00976562 0)
(0.0186719 -0.00976562 5.75547e-19)
(0.0188281 -0.00976562 0)
(0.0189844 -0.00976562 5.75547e-19)
(0.0191406 -0.00976562 0)
(0.0192969 -0.00976562 5.75547e-19)
(0.0194531 -0.00976562 0)
(0.0196094 -0.00976562 5.75547e-19)
(0.0197656 -0.00976562 0)
(0.0199219 -0.00976562 5.75547e-19)
(7.8125e-05 -0.00960937 0)
(0.000234375 -0.00960937 5.75547e-19)
(0.000390625 -0.00960938 0)
(0.000546875 -0.00960937 2.9982e-19)
(0.000703125 -0.00960937 2.9982e-19)
(0.000859375 -0.00960937 2.9982e-19)
(0.00101563 -0.00960937 0)
(0.00117187 -0.00960937 0)
(0.00132812 -0.00960937 0)
(0.00148438 -0.00960937 0)
(0.00164062 -0.00960937 0)
(0.00179687 -0.00960937 2.9982e-19)
(0.00195312 -0.00960937 0)
(0.00210938 -0.00960937 0)
(0.00226562 -0.00960937 0)
(0.00242187 -0.00960937 0)
(0.00257812 -0.00960937 0)
(0.00273438 -0.00960937 0)
(0.00289062 -0.00960937 0)
(0.00304688 -0.00960937 0)
(0.00320312 -0.00960937 0)
(0.00335938 -0.00960937 0)
(0.00351563 -0.00960937 0)
(0.00367187 -0.00960937 0)
(0.00382812 -0.00960937 0)
(0.00398438 -0.00960937 0)
(0.00414063 -0.00960937 0)
(0.00429688 -0.00960937 0)
(0.00445313 -0.00960937 5.99641e-19)
(0.00460937 -0.00960937 0)
(0.00476562 -0.00960937 0)
(0.00492188 -0.00960937 0)
(0.00507813 -0.00960937 0)
(0.00523438 -0.00960937 0)
(0.00539062 -0.00960937 0)
(0.00554687 -0.00960937 0)
(0.00570312 -0.00960937 0)
(0.00585938 -0.00960937 0)
(0.00601563 -0.00960937 0)
(0.00617187 -0.00960937 0)
(0.00632812 -0.00960937 0)
(0.00648437 -0.00960937 0)
(0.00664063 -0.00960938 0)
(0.00679687 -0.00960937 0)
(0.00695313 -0.00960937 0)
(0.00710937 -0.00960937 0)
(0.00726563 -0.00960937 0)
(0.00742187 -0.00960937 0)
(0.00757812 -0.00960937 0)
(0.00773437 -0.00960937 0)
(0.00789063 -0.00960937 0)
(0.00804688 -0.00960937 0)
(0.00820313 -0.00960937 0)
(0.00835938 -0.00960937 0)
(0.00851563 -0.00960937 0)
(0.00867188 -0.00960937 0)
(0.00882813 -0.00960937 0)
(0.00898437 -0.00960937 0)
(0.00914062 -0.00960937 0)
(0.00929688 -0.00960937 0)
(0.00945313 -0.00960937 0)
(0.00960937 -0.00960937 0)
(0.00976562 -0.00960937 0)
(0.00992188 -0.00960937 0)
(0.0100781 -0.00960937 0)
(0.0102344 -0.00960937 0)
(0.0103906 -0.00960937 0)
(0.0105469 -0.00960937 0)
(0.0107031 -0.00960937 0)
(0.0108594 -0.00960937 0)
(0.0110156 -0.00960937 0)
(0.0111719 -0.00960937 0)
(0.0113281 -0.00960937 5.75547e-19)
(0.0114844 -0.00960937 0)
(0.0116406 -0.00960937 0)
(0.0117969 -0.00960937 0)
(0.0119531 -0.00960938 5.75547e-19)
(0.0121094 -0.00960937 0)
(0.0122656 -0.00960937 0)
(0.0124219 -0.00960937 0)
(0.0125781 -0.00960937 5.75547e-19)
(0.0127344 -0.00960937 0)
(0.0128906 -0.00960937 0)
(0.0130469 -0.00960937 0)
(0.0132031 -0.00960937 0)
(0.0133594 -0.00960938 0)
(0.0135156 -0.00960937 0)
(0.0136719 -0.00960937 0)
(0.0138281 -0.00960937 0)
(0.0139844 -0.00960937 0)
(0.0141406 -0.00960937 0)
(0.0142969 -0.00960937 0)
(0.0144531 -0.00960937 0)
(0.0146094 -0.00960937 0)
(0.0147656 -0.00960937 0)
(0.0149219 -0.00960937 0)
(0.0150781 -0.00960937 0)
(0.0152344 -0.00960937 5.75547e-19)
(0.0153906 -0.00960937 0)
(0.0155469 -0.00960937 0)
(0.0157031 -0.00960937 5.75547e-19)
(0.0158594 -0.00960937 0)
(0.0160156 -0.00960937 5.75547e-19)
(0.0161719 -0.00960937 0)
(0.0163281 -0.00960937 5.75547e-19)
(0.0164844 -0.00960937 0)
(0.0166406 -0.00960937 5.75547e-19)
(0.0167969 -0.00960937 0)
(0.0169531 -0.00960937 5.75547e-19)
(0.0171094 -0.00960937 0)
(0.0172656 -0.00960937 5.75547e-19)
(0.0174219 -0.00960937 0)
(0.0175781 -0.00960937 0)
(0.0177344 -0.00960937 5.75547e-19)
(0.0178906 -0.00960937 0)
(0.0180469 -0.00960937 5.75547e-19)
(0.0182031 -0.00960937 0)
(0.0183594 -0.00960937 5.75547e-19)
(0.0185156 -0.00960937 0)
(0.0186719 -0.00960937 5.75547e-19)
(0.0188281 -0.00960937 0)
(0.0189844 -0.00960937 5.75547e-19)
(0.0191406 -0.00960937 0)
(0.0192969 -0.00960937 5.75547e-19)
(0.0194531 -0.00960937 0)
(0.0196094 -0.00960937 5.75547e-19)
(0.0197656 -0.00960937 0)
(0.0199219 -0.00960937 5.75547e-19)
(7.8125e-05 -0.00945312 0)
(0.000234375 -0.00945313 5.75547e-19)
(0.000390625 -0.00945312 0)
(0.000546875 -0.00945312 2.9982e-19)
(0.000703125 -0.00945313 2.9982e-19)
(0.000859375 -0.00945312 2.9982e-19)
(0.00101563 -0.00945313 0)
(0.00117187 -0.00945312 0)
(0.00132812 -0.00945312 0)
(0.00148438 -0.00945313 0)
(0.00164062 -0.00945312 0)
(0.00179687 -0.00945312 2.9982e-19)
(0.00195312 -0.00945312 0)
(0.00210938 -0.00945313 0)
(0.00226563 -0.00945312 0)
(0.00242187 -0.00945312 0)
(0.00257812 -0.00945312 0)
(0.00273438 -0.00945312 0)
(0.00289062 -0.00945312 0)
(0.00304688 -0.00945313 0)
(0.00320312 -0.00945312 0)
(0.00335937 -0.00945312 0)
(0.00351563 -0.00945312 0)
(0.00367188 -0.00945312 0)
(0.00382812 -0.00945312 0)
(0.00398438 -0.00945312 0)
(0.00414063 -0.00945312 0)
(0.00429688 -0.00945312 0)
(0.00445312 -0.00945312 5.99641e-19)
(0.00460937 -0.00945312 0)
(0.00476562 -0.00945312 0)
(0.00492188 -0.00945313 0)
(0.00507813 -0.00945312 0)
(0.00523438 -0.00945312 0)
(0.00539062 -0.00945312 0)
(0.00554687 -0.00945312 0)
(0.00570312 -0.00945312 0)
(0.00585937 -0.00945312 0)
(0.00601563 -0.00945313 0)
(0.00617187 -0.00945312 0)
(0.00632812 -0.00945312 0)
(0.00648438 -0.00945313 0)
(0.00664063 -0.00945313 0)
(0.00679688 -0.00945312 0)
(0.00695313 -0.00945313 0)
(0.00710938 -0.00945312 0)
(0.00726563 -0.00945312 0)
(0.00742187 -0.00945312 0)
(0.00757812 -0.00945313 0)
(0.00773437 -0.00945312 0)
(0.00789063 -0.00945313 0)
(0.00804688 -0.00945312 0)
(0.00820313 -0.00945312 0)
(0.00835938 -0.00945312 0)
(0.00851563 -0.00945312 0)
(0.00867188 -0.00945313 0)
(0.00882813 -0.00945312 0)
(0.00898437 -0.00945312 0)
(0.00914063 -0.00945312 0)
(0.00929688 -0.00945312 0)
(0.00945312 -0.00945312 0)
(0.00960937 -0.00945312 0)
(0.00976562 -0.00945312 0)
(0.00992188 -0.00945312 0)
(0.0100781 -0.00945312 0)
(0.0102344 -0.00945312 0)
(0.0103906 -0.00945312 0)
(0.0105469 -0.00945313 0)
(0.0107031 -0.00945312 0)
(0.0108594 -0.00945313 0)
(0.0110156 -0.00945312 0)
(0.0111719 -0.00945313 0)
(0.0113281 -0.00945312 5.75547e-19)
(0.0114844 -0.00945312 0)
(0.0116406 -0.00945312 0)
(0.0117969 -0.00945313 0)
(0.0119531 -0.00945313 5.75547e-19)
(0.0121094 -0.00945313 0)
(0.0122656 -0.00945313 0)
(0.0124219 -0.00945313 0)
(0.0125781 -0.00945313 5.75547e-19)
(0.0127344 -0.00945313 0)
(0.0128906 -0.00945312 0)
(0.0130469 -0.00945313 0)
(0.0132031 -0.00945312 0)
(0.0133594 -0.00945313 0)
(0.0135156 -0.00945313 0)
(0.0136719 -0.00945312 0)
(0.0138281 -0.00945312 0)
(0.0139844 -0.00945312 0)
(0.0141406 -0.00945312 0)
(0.0142969 -0.00945312 0)
(0.0144531 -0.00945313 0)
(0.0146094 -0.00945312 0)
(0.0147656 -0.00945313 0)
(0.0149219 -0.00945313 0)
(0.0150781 -0.00945312 0)
(0.0152344 -0.00945313 5.75547e-19)
(0.0153906 -0.00945313 0)
(0.0155469 -0.00945312 0)
(0.0157031 -0.00945313 5.75547e-19)
(0.0158594 -0.00945312 0)
(0.0160156 -0.00945312 5.75547e-19)
(0.0161719 -0.00945312 0)
(0.0163281 -0.00945313 5.75547e-19)
(0.0164844 -0.00945312 0)
(0.0166406 -0.00945312 5.75547e-19)
(0.0167969 -0.00945312 0)
(0.0169531 -0.00945313 5.75547e-19)
(0.0171094 -0.00945312 0)
(0.0172656 -0.00945312 5.75547e-19)
(0.0174219 -0.00945313 0)
(0.0175781 -0.00945313 0)
(0.0177344 -0.00945313 5.75547e-19)
(0.0178906 -0.00945312 0)
(0.0180469 -0.00945313 5.75547e-19)
(0.0182031 -0.00945312 0)
(0.0183594 -0.00945313 5.75547e-19)
(0.0185156 -0.00945312 0)
(0.0186719 -0.00945313 5.75547e-19)
(0.0188281 -0.00945312 0)
(0.0189844 -0.00945313 5.75547e-19)
(0.0191406 -0.00945313 0)
(0.0192969 -0.00945313 5.75547e-19)
(0.0194531 -0.00945312 0)
(0.0196094 -0.00945313 5.75547e-19)
(0.0197656 -0.00945312 0)
(0.0199219 -0.00945313 5.75547e-19)
(7.8125e-05 -0.00929687 0)
(0.000234375 -0.00929688 5.75547e-19)
(0.000390625 -0.00929687 0)
(0.000546875 -0.00929687 2.9982e-19)
(0.000703125 -0.00929687 2.9982e-19)
(0.000859375 -0.00929687 2.9982e-19)
(0.00101563 -0.00929687 0)
(0.00117187 -0.00929687 0)
(0.00132812 -0.00929687 0)
(0.00148438 -0.00929688 0)
(0.00164063 -0.00929687 0)
(0.00179687 -0.00929687 2.9982e-19)
(0.00195312 -0.00929687 0)
(0.00210938 -0.00929688 0)
(0.00226562 -0.00929687 0)
(0.00242187 -0.00929687 0)
(0.00257812 -0.00929687 0)
(0.00273437 -0.00929687 0)
(0.00289063 -0.00929688 0)
(0.00304688 -0.00929687 0)
(0.00320312 -0.00929687 0)
(0.00335937 -0.00929688 0)
(0.00351563 -0.00929688 0)
(0.00367187 -0.00929687 0)
(0.00382813 -0.00929688 0)
(0.00398438 -0.00929688 0)
(0.00414063 -0.00929688 0)
(0.00429688 -0.00929688 0)
(0.00445312 -0.00929687 5.99641e-19)
(0.00460937 -0.00929688 0)
(0.00476562 -0.00929688 0)
(0.00492188 -0.00929688 0)
(0.00507813 -0.00929688 0)
(0.00523438 -0.00929688 0)
(0.00539062 -0.00929687 0)
(0.00554687 -0.00929687 0)
(0.00570313 -0.00929687 0)
(0.00585938 -0.00929687 0)
(0.00601563 -0.00929687 0)
(0.00617188 -0.00929687 0)
(0.00632812 -0.00929687 0)
(0.00648438 -0.00929688 0)
(0.00664063 -0.00929688 0)
(0.00679688 -0.00929688 0)
(0.00695313 -0.00929688 0)
(0.00710938 -0.00929688 0)
(0.00726562 -0.00929688 0)
(0.00742188 -0.00929688 0)
(0.00757813 -0.00929688 0)
(0.00773437 -0.00929688 0)
(0.00789063 -0.00929688 0)
(0.00804688 -0.00929688 0)
(0.00820313 -0.00929688 0)
(0.00835938 -0.00929687 0)
(0.00851563 -0.00929688 0)
(0.00867188 -0.00929688 0)
(0.00882813 -0.00929687 0)
(0.00898437 -0.00929688 0)
(0.00914063 -0.00929688 0)
(0.00929688 -0.00929688 0)
(0.00945312 -0.00929688 0)
(0.00960937 -0.00929688 0)
(0.00976562 -0.00929687 0)
(0.00992188 -0.00929688 0)
(0.0100781 -0.00929688 0)
(0.0102344 -0.00929688 0)
(0.0103906 -0.00929688 0)
(0.0105469 -0.00929687 0)
(0.0107031 -0.00929687 0)
(0.0108594 -0.00929688 0)
(0.0110156 -0.00929687 0)
(0.0111719 -0.00929688 0)
(0.0113281 -0.00929687 5.75547e-19)
(0.0114844 -0.00929688 0)
(0.0116406 -0.00929687 0)
(0.0117969 -0.00929688 0)
(0.0119531 -0.00929687 5.75547e-19)
(0.0121094 -0.00929688 0)
(0.0122656 -0.00929688 0)
(0.0124219 -0.00929687 0)
(0.0125781 -0.00929687 5.75547e-19)
(0.0127344 -0.00929688 0)
(0.0128906 -0.00929688 0)
(0.0130469 -0.00929688 0)
(0.0132031 -0.00929687 0)
(0.0133594 -0.00929688 0)
(0.0135156 -0.00929688 0)
(0.0136719 -0.00929687 0)
(0.0138281 -0.00929688 0)
(0.0139844 -0.00929687 0)
(0.0141406 -0.00929687 0)
(0.0142969 -0.00929687 0)
(0.0144531 -0.00929688 0)
(0.0146094 -0.00929687 0)
(0.0147656 -0.00929688 0)
(0.0149219 -0.00929688 0)
(0.0150781 -0.00929687 0)
(0.0152344 -0.00929687 5.75547e-19)
(0.0153906 -0.00929688 0)
(0.0155469 -0.00929687 0)
(0.0157031 -0.00929687 5.75547e-19)
(0.0158594 -0.00929688 0)
(0.0160156 -0.00929687 5.75547e-19)
(0.0161719 -0.00929687 0)
(0.0163281 -0.00929687 5.75547e-19)
(0.0164844 -0.00929688 0)
(0.0166406 -0.00929687 5.75547e-19)
(0.0167969 -0.00929687 0)
(0.0169531 -0.00929687 5.75547e-19)
(0.0171094 -0.00929688 0)
(0.0172656 -0.00929687 5.75547e-19)
(0.0174219 -0.00929687 0)
(0.0175781 -0.00929688 0)
(0.0177344 -0.00929687 5.75547e-19)
(0.0178906 -0.00929688 0)
(0.0180469 -0.00929687 5.75547e-19)
(0.0182031 -0.00929687 0)
(0.0183594 -0.00929687 5.75547e-19)
(0.0185156 -0.00929688 0)
(0.0186719 -0.00929687 5.75547e-19)
(0.0188281 -0.00929687 0)
(0.0189844 -0.00929687 5.75547e-19)
(0.0191406 -0.00929687 0)
(0.0192969 -0.00929687 5.75547e-19)
(0.0194531 -0.00929687 0)
(0.0196094 -0.00929687 5.75547e-19)
(0.0197656 -0.00929688 0)
(0.0199219 -0.00929687 5.75547e-19)
(7.8125e-05 -0.00914062 0)
(0.000234375 -0.00914062 5.75547e-19)
(0.000390625 -0.00914062 0)
(0.000546875 -0.00914062 2.9982e-19)
(0.000703125 -0.00914062 2.9982e-19)
(0.000859375 -0.00914062 2.9982e-19)
(0.00101563 -0.00914062 0)
(0.00117187 -0.00914062 0)
(0.00132812 -0.00914062 0)
(0.00148438 -0.00914062 0)
(0.00164062 -0.00914062 0)
(0.00179687 -0.00914062 2.9982e-19)
(0.00195312 -0.00914062 0)
(0.00210938 -0.00914062 0)
(0.00226562 -0.00914062 0)
(0.00242187 -0.00914062 0)
(0.00257812 -0.00914062 0)
(0.00273437 -0.00914062 0)
(0.00289062 -0.00914062 0)
(0.00304688 -0.00914063 0)
(0.00320312 -0.00914062 0)
(0.00335937 -0.00914062 0)
(0.00351563 -0.00914062 0)
(0.00367187 -0.00914062 0)
(0.00382812 -0.00914062 0)
(0.00398438 -0.00914062 0)
(0.00414063 -0.00914062 0)
(0.00429688 -0.00914062 0)
(0.00445313 -0.00914062 5.99641e-19)
(0.00460937 -0.00914062 0)
(0.00476562 -0.00914062 0)
(0.00492188 -0.00914063 0)
(0.00507813 -0.00914062 0)
(0.00523438 -0.00914062 0)
(0.00539062 -0.00914062 0)
(0.00554687 -0.00914062 0)
(0.00570312 -0.00914062 0)
(0.00585937 -0.00914062 0)
(0.00601563 -0.00914062 0)
(0.00617187 -0.00914062 0)
(0.00632813 -0.00914062 0)
(0.00648438 -0.00914062 0)
(0.00664063 -0.00914062 0)
(0.00679688 -0.00914062 0)
(0.00695313 -0.00914062 0)
(0.00710938 -0.00914062 0)
(0.00726563 -0.00914062 0)
(0.00742187 -0.00914062 0)
(0.00757812 -0.00914062 0)
(0.00773437 -0.00914062 0)
(0.00789063 -0.00914063 0)
(0.00804688 -0.00914062 0)
(0.00820313 -0.00914062 0)
(0.00835938 -0.00914062 0)
(0.00851563 -0.00914062 0)
(0.00867188 -0.00914062 0)
(0.00882813 -0.00914062 0)
(0.00898437 -0.00914062 0)
(0.00914063 -0.00914062 0)
(0.00929688 -0.00914063 0)
(0.00945312 -0.00914062 0)
(0.00960937 -0.00914062 0)
(0.00976562 -0.00914062 0)
(0.00992188 -0.00914063 0)
(0.0100781 -0.00914062 0)
(0.0102344 -0.00914063 0)
(0.0103906 -0.00914062 0)
(0.0105469 -0.00914063 0)
(0.0107031 -0.00914062 0)
(0.0108594 -0.00914062 0)
(0.0110156 -0.00914062 0)
(0.0111719 -0.00914062 0)
(0.0113281 -0.00914062 5.75547e-19)
(0.0114844 -0.00914062 0)
(0.0116406 -0.00914062 0)
(0.0117969 -0.00914062 0)
(0.0119531 -0.00914062 5.75547e-19)
(0.0121094 -0.00914062 0)
(0.0122656 -0.00914062 0)
(0.0124219 -0.00914062 0)
(0.0125781 -0.00914062 5.75547e-19)
(0.0127344 -0.00914062 0)
(0.0128906 -0.00914063 0)
(0.0130469 -0.00914062 0)
(0.0132031 -0.00914062 0)
(0.0133594 -0.00914062 0)
(0.0135156 -0.00914063 0)
(0.0136719 -0.00914062 0)
(0.0138281 -0.00914062 0)
(0.0139844 -0.00914062 0)
(0.0141406 -0.00914062 0)
(0.0142969 -0.00914062 0)
(0.0144531 -0.00914062 0)
(0.0146094 -0.00914062 0)
(0.0147656 -0.00914062 0)
(0.0149219 -0.00914062 0)
(0.0150781 -0.00914062 0)
(0.0152344 -0.00914062 5.75547e-19)
(0.0153906 -0.00914062 0)
(0.0155469 -0.00914062 0)
(0.0157031 -0.00914062 5.75547e-19)
(0.0158594 -0.00914063 0)
(0.0160156 -0.00914062 5.75547e-19)
(0.0161719 -0.00914062 0)
(0.0163281 -0.00914062 5.75547e-19)
(0.0164844 -0.00914063 0)
(0.0166406 -0.00914062 5.75547e-19)
(0.0167969 -0.00914062 0)
(0.0169531 -0.00914062 5.75547e-19)
(0.0171094 -0.00914063 0)
(0.0172656 -0.00914062 5.75547e-19)
(0.0174219 -0.00914062 0)
(0.0175781 -0.00914062 0)
(0.0177344 -0.00914062 5.75547e-19)
(0.0178906 -0.00914063 0)
(0.0180469 -0.00914062 5.75547e-19)
(0.0182031 -0.00914062 0)
(0.0183594 -0.00914062 5.75547e-19)
(0.0185156 -0.00914063 0)
(0.0186719 -0.00914062 5.75547e-19)
(0.0188281 -0.00914062 0)
(0.0189844 -0.00914062 5.75547e-19)
(0.0191406 -0.00914062 0)
(0.0192969 -0.00914062 5.75547e-19)
(0.0194531 -0.00914062 0)
(0.0196094 -0.00914062 5.75547e-19)
(0.0197656 -0.00914063 0)
(0.0199219 -0.00914062 5.75547e-19)
(7.8125e-05 -0.00898437 0)
(0.000234375 -0.00898437 5.75547e-19)
(0.000390625 -0.00898437 0)
(0.000546875 -0.00898437 2.9982e-19)
(0.000703125 -0.00898437 2.9982e-19)
(0.000859375 -0.00898437 2.9982e-19)
(0.00101563 -0.00898437 0)
(0.00117187 -0.00898437 0)
(0.00132812 -0.00898437 0)
(0.00148438 -0.00898437 0)
(0.00164062 -0.00898437 0)
(0.00179687 -0.00898437 2.9982e-19)
(0.00195312 -0.00898437 0)
(0.00210938 -0.00898438 0)
(0.00226562 -0.00898437 0)
(0.00242187 -0.00898437 0)
(0.00257812 -0.00898437 0)
(0.00273437 -0.00898437 0)
(0.00289063 -0.00898437 0)
(0.00304688 -0.00898437 0)
(0.00320312 -0.00898437 0)
(0.00335937 -0.00898437 0)
(0.00351563 -0.00898437 0)
(0.00367187 -0.00898437 0)
(0.00382813 -0.00898438 0)
(0.00398438 -0.00898437 0)
(0.00414063 -0.00898437 0)
(0.00429688 -0.00898437 0)
(0.00445313 -0.00898437 5.99641e-19)
(0.00460937 -0.00898437 0)
(0.00476562 -0.00898437 0)
(0.00492188 -0.00898438 0)
(0.00507813 -0.00898437 0)
(0.00523438 -0.00898437 0)
(0.00539062 -0.00898437 0)
(0.00554687 -0.00898437 0)
(0.00570313 -0.00898437 0)
(0.00585938 -0.00898437 0)
(0.00601563 -0.00898437 0)
(0.00617188 -0.00898437 0)
(0.00632813 -0.00898437 0)
(0.00648438 -0.00898437 0)
(0.00664063 -0.00898438 0)
(0.00679688 -0.00898437 0)
(0.00695313 -0.00898438 0)
(0.00710938 -0.00898437 0)
(0.00726563 -0.00898437 0)
(0.00742188 -0.00898437 0)
(0.00757813 -0.00898438 0)
(0.00773437 -0.00898437 0)
(0.00789063 -0.00898438 0)
(0.00804688 -0.00898437 0)
(0.00820313 -0.00898437 0)
(0.00835938 -0.00898437 0)
(0.00851563 -0.00898437 0)
(0.00867188 -0.00898437 0)
(0.00882812 -0.00898437 0)
(0.00898437 -0.00898437 0)
(0.00914063 -0.00898437 0)
(0.00929688 -0.00898437 0)
(0.00945312 -0.00898437 0)
(0.00960937 -0.00898437 0)
(0.00976562 -0.00898437 0)
(0.00992188 -0.00898437 0)
(0.0100781 -0.00898437 0)
(0.0102344 -0.00898437 0)
(0.0103906 -0.00898437 0)
(0.0105469 -0.00898437 0)
(0.0107031 -0.00898437 0)
(0.0108594 -0.00898437 0)
(0.0110156 -0.00898437 0)
(0.0111719 -0.00898437 0)
(0.0113281 -0.00898437 5.75547e-19)
(0.0114844 -0.00898437 0)
(0.0116406 -0.00898437 0)
(0.0117969 -0.00898437 0)
(0.0119531 -0.00898437 5.75547e-19)
(0.0121094 -0.00898437 0)
(0.0122656 -0.00898438 0)
(0.0124219 -0.00898437 0)
(0.0125781 -0.00898437 5.75547e-19)
(0.0127344 -0.00898437 0)
(0.0128906 -0.00898437 0)
(0.0130469 -0.00898437 0)
(0.0132031 -0.00898437 0)
(0.0133594 -0.00898438 0)
(0.0135156 -0.00898437 0)
(0.0136719 -0.00898437 0)
(0.0138281 -0.00898437 0)
(0.0139844 -0.00898437 0)
(0.0141406 -0.00898437 0)
(0.0142969 -0.00898437 0)
(0.0144531 -0.00898437 0)
(0.0146094 -0.00898437 0)
(0.0147656 -0.00898437 0)
(0.0149219 -0.00898438 0)
(0.0150781 -0.00898437 0)
(0.0152344 -0.00898437 5.75547e-19)
(0.0153906 -0.00898437 0)
(0.0155469 -0.00898437 0)
(0.0157031 -0.00898437 5.75547e-19)
(0.0158594 -0.00898437 0)
(0.0160156 -0.00898437 5.75547e-19)
(0.0161719 -0.00898438 0)
(0.0163281 -0.00898437 5.75547e-19)
(0.0164844 -0.00898437 0)
(0.0166406 -0.00898437 5.75547e-19)
(0.0167969 -0.00898438 0)
(0.0169531 -0.00898437 5.75547e-19)
(0.0171094 -0.00898437 0)
(0.0172656 -0.00898437 5.75547e-19)
(0.0174219 -0.00898437 0)
(0.0175781 -0.00898437 0)
(0.0177344 -0.00898437 5.75547e-19)
(0.0178906 -0.00898437 0)
(0.0180469 -0.00898437 5.75547e-19)
(0.0182031 -0.00898437 0)
(0.0183594 -0.00898437 5.75547e-19)
(0.0185156 -0.00898437 0)
(0.0186719 -0.00898437 5.75547e-19)
(0.0188281 -0.00898437 0)
(0.0189844 -0.00898437 5.75547e-19)
(0.0191406 -0.00898437 0)
(0.0192969 -0.00898437 5.75547e-19)
(0.0194531 -0.00898438 0)
(0.0196094 -0.00898437 5.75547e-19)
(0.0197656 -0.00898437 0)
(0.0199219 -0.00898437 5.75547e-19)
(7.8125e-05 -0.00882813 -5.635e-19)
(0.000234375 -0.00882813 -2.9982e-19)
(0.000390625 -0.00882812 -2.9982e-19)
(0.000546875 -0.00882813 -5.75547e-19)
(0.000703125 -0.00882813 -5.75547e-19)
(0.000859375 -0.00882813 0)
(0.00101563 -0.00882813 0)
(0.00117187 -0.00882812 0)
(0.00132812 -0.00882812 0)
(0.00148438 -0.00882813 0)
(0.00164062 -0.00882812 0)
(0.00179687 -0.00882813 0)
(0.00195312 -0.00882813 0)
(0.00210938 -0.00882813 0)
(0.00226562 -0.00882813 2.9982e-19)
(0.00242187 -0.00882813 0)
(0.00257813 -0.00882813 0)
(0.00273437 -0.00882812 2.9982e-19)
(0.00289062 -0.00882813 0)
(0.00304688 -0.00882813 0)
(0.00320312 -0.00882813 2.9982e-19)
(0.00335937 -0.00882813 0)
(0.00351563 -0.00882813 0)
(0.00367187 -0.00882813 2.9982e-19)
(0.00382812 -0.00882813 0)
(0.00398437 -0.00882813 0)
(0.00414063 -0.00882813 0)
(0.00429688 -0.00882813 0)
(0.00445313 -0.00882812 0)
(0.00460937 -0.00882813 0)
(0.00476562 -0.00882813 0)
(0.00492188 -0.00882813 0)
(0.00507813 -0.00882813 0)
(0.00523438 -0.00882813 0)
(0.00539062 -0.00882812 0)
(0.00554688 -0.00882813 0)
(0.00570312 -0.00882813 0)
(0.00585938 -0.00882813 0)
(0.00601563 -0.00882813 0)
(0.00617188 -0.00882813 0)
(0.00632813 -0.00882813 0)
(0.00648438 -0.00882813 0)
(0.00664062 -0.00882813 0)
(0.00679687 -0.00882813 0)
(0.00695313 -0.00882813 0)
(0.00710937 -0.00882813 0)
(0.00726562 -0.00882813 8.75367e-19)
(0.00742187 -0.00882813 0)
(0.00757812 -0.00882813 0)
(0.00773437 -0.00882813 0)
(0.00789063 -0.00882813 0)
(0.00804688 -0.00882813 0)
(0.00820312 -0.00882813 0)
(0.00835938 -0.00882813 0)
(0.00851563 -0.00882813 0)
(0.00867188 -0.00882813 0)
(0.00882813 -0.00882813 0)
(0.00898437 -0.00882813 0)
(0.00914063 -0.00882812 0)
(0.00929688 -0.00882812 0)
(0.00945312 -0.00882813 0)
(0.00960937 -0.00882813 0)
(0.00976562 -0.00882813 0)
(0.00992188 -0.00882813 0)
(0.0100781 -0.00882813 0)
(0.0102344 -0.00882813 0)
(0.0103906 -0.00882812 0)
(0.0105469 -0.00882813 0)
(0.0107031 -0.00882813 0)
(0.0108594 -0.00882813 0)
(0.0110156 -0.00882813 0)
(0.0111719 -0.00882813 0)
(0.0113281 -0.00882813 0)
(0.0114844 -0.00882813 0)
(0.0116406 -0.00882813 0)
(0.0117969 -0.00882813 0)
(0.0119531 -0.00882813 0)
(0.0121094 -0.00882813 0)
(0.0122656 -0.00882813 0)
(0.0124219 -0.00882813 0)
(0.0125781 -0.00882813 0)
(0.0127344 -0.00882813 0)
(0.0128906 -0.00882813 0)
(0.0130469 -0.00882813 0)
(0.0132031 -0.00882813 0)
(0.0133594 -0.00882813 0)
(0.0135156 -0.00882813 0)
(0.0136719 -0.00882813 0)
(0.0138281 -0.00882813 0)
(0.0139844 -0.00882813 0)
(0.0141406 -0.00882813 0)
(0.0142969 -0.00882813 0)
(0.0144531 -0.00882813 0)
(0.0146094 -0.00882813 0)
(0.0147656 -0.00882813 0)
(0.0149219 -0.00882813 0)
(0.0150781 -0.00882813 0)
(0.0152344 -0.00882813 0)
(0.0153906 -0.00882813 0)
(0.0155469 -0.00882813 0)
(0.0157031 -0.00882813 0)
(0.0158594 -0.00882813 0)
(0.0160156 -0.00882813 0)
(0.0161719 -0.00882813 0)
(0.0163281 -0.00882812 0)
(0.0164844 -0.00882813 0)
(0.0166406 -0.00882813 0)
(0.0167969 -0.00882813 0)
(0.0169531 -0.00882813 0)
(0.0171094 -0.00882813 0)
(0.0172656 -0.00882813 0)
(0.0174219 -0.00882813 0)
(0.0175781 -0.00882812 0)
(0.0177344 -0.00882813 0)
(0.0178906 -0.00882813 0)
(0.0180469 -0.00882813 0)
(0.0182031 -0.00882813 0)
(0.0183594 -0.00882812 0)
(0.0185156 -0.00882813 0)
(0.0186719 -0.00882813 0)
(0.0188281 -0.00882813 0)
(0.0189844 -0.00882812 0)
(0.0191406 -0.00882813 0)
(0.0192969 -0.00882813 0)
(0.0194531 -0.00882813 0)
(0.0196094 -0.00882812 0)
(0.0197656 -0.00882813 0)
(0.0199219 -0.00882813 0)
(7.8125e-05 -0.00867188 0)
(0.000234375 -0.00867188 5.75547e-19)
(0.000390625 -0.00867188 0)
(0.000546875 -0.00867188 2.9982e-19)
(0.000703125 -0.00867188 2.9982e-19)
(0.000859375 -0.00867188 2.9982e-19)
(0.00101563 -0.00867188 0)
(0.00117187 -0.00867187 0)
(0.00132812 -0.00867187 0)
(0.00148438 -0.00867188 0)
(0.00164062 -0.00867187 0)
(0.00179687 -0.00867187 2.9982e-19)
(0.00195312 -0.00867188 0)
(0.00210938 -0.00867188 0)