/*--------------------------------*- C++ -*----------------------------------*\
  =========                 |
  \\      /  F ield         | OpenFOAM: The Open Source CFD Toolbox
   \\    /   O peration     | Website:  https://openfoam.org
    \\  /    A nd           | Version:  10
     \\/     M anipulation  |
\*---------------------------------------------------------------------------*/
FoamFile
{
    format      ascii;
    class       volScalarField;
    location    "0";
    object      CH4;
}
// * * * * * * * * * * * * * * * * * * * * * * * * * * * * * * * * * * * * * //

dimensions      [0 0 0 0 0 0 0];

internalField   uniform 0.0;

boundaryField
{
    inlet
    {
        type            fixedValue;
        value           nonuniform List<scalar>
128
(
0.000002787382008227
0.000003573571596256
0.000004565888520434
0.000005813860567699
0.000007377686283034
0.000009330220222986
0.000011759252750499
0.000014769897388493
0.000018488344771106
0.000023064360742311
0.000028674100126275
0.000035527285248557
0.000043869078591207
0.000053983701086989
0.000066206174262006
0.000080918901518224
0.000098565311043204
0.000119652634458078
0.000144759162270744
0.000174540906696045
0.000209738268973880
0.000251182575273986
0.000299802322896176
0.000356628956462890
0.000422801972947045
0.000499567854560397
0.000588303467828034
0.000690495431303845
0.000807732079745831
0.000941736190772935
0.001094325469429320
0.001267452578956977
0.001463137862908215
0.001683510403595894
0.001930726406269864
0.002207017476798212
0.002514688066727983
0.002855999484883797
0.003233212389713488
0.003648569083378804
0.004104153620805003
0.004601984742098584
0.005144007723289675
0.005731932328351213
0.006367168140178923
0.007050984187851252
0.007784278562305581
0.008567772904398255
0.009401755903469860
0.010286024516988045
0.011220075091049058
0.012203182337104409
0.013233825364272247
0.014310224856555848
0.015430388153672846
0.016591474479641178
0.017790434113792797
0.019023987011986500
0.020288300741129134
0.021579166269381630
0.022892205124654407
0.024222753468793278
0.025565951677684374
0.026916797586403412
0.028270202413596583
0.029621048322315630
0.030964246531206724
0.032294794875345593
0.033607833730618370
0.034898699258870866
0.036163012988013500
0.037396565886207201
0.038595525520358822
0.039756684874268556
0.040876704827723706
0.041953174635727750
0.042983817662895589
0.043966924908950942
0.044900975483011959
0.045785244096530135
0.046619175339010312
0.047402672903799025
0.048136015812148748
0.048819831859821079
0.049455067671648786
0.050042992276710327
0.050585015257901415
0.051082846379195000
0.051538430916621192
0.051953787610286512
0.052331000515116204
0.052672311933272017
0.052979982523201790
0.053256273593730137
0.053503489596404110
0.053723862137091783
0.053919547421043021
0.054092674530570681
0.054245263809227070
0.054379267920254172
0.054496504568696155
0.054598696532171971
0.054687426864426165
0.054764202587282881
0.054830371043537109
0.054887197677103819
0.054935817424726013
0.054977261731026115
0.055012459093303960
0.055042240837729256
0.055067348837168277
0.055088434688956799
0.055106081098481775
0.055120793825737989
0.055133016298913010
0.055143130921408796
0.055151472714751446
0.055158325899873720
0.055163935963155175
0.055168511655228895
0.055172230102611507
0.055175240747249499
0.055177669779777014
0.055179622313716962
0.055181186139432305
0.055182434111479566
0.055183426428403741
0.055184212662619879
);
    }
    /*    air
   / {
    /    type            fixedValue;
        value           uniform 0.0;
    }
    */
    outlet
    {
            type zeroGradient;

	    //        type            inletOutlet;
	    // inletValue      uniform 0.0;
	    // value           uniform 0.0;

    }
    frontAndBack
    {
        type            empty;
    }
}


// ************************************************************************* //
