/*--------------------------------*- C++ -*----------------------------------*\
  =========                 |
  \\      /  F ield         | OpenFOAM: The Open Source CFD Toolbox
   \\    /   O peration     | Website:  https://openfoam.org
    \\  /    A nd           | Version:  10
     \\/     M anipulation  |
\*---------------------------------------------------------------------------*/
FoamFile
{
    format      ascii;
    class       volScalarField;
    location    "0";
    object      N2;
}
// * * * * * * * * * * * * * * * * * * * * * * * * * * * * * * * * * * * * * //

dimensions      [0 0 0 0 0 0 0];

internalField   uniform 1;

boundaryField
{
    inlet
    {
        type            fixedValue;
        value           nonuniform List<scalar>
128
(
0.727469255166338504
0.727458891174049947
0.727445809895556080
0.727429358427778929
0.727408743199720502
0.727383003801736942
0.727350982932003826
0.727311294925081756
0.727262276265224629
0.727201952655042030
0.727128001922799462
0.727037659391124060
0.726927693190614190
0.726794356561454854
0.726633233061904883
0.726439281635749054
0.726206656763806746
0.725928671834235270
0.725597703497074674
0.725205103831213641
0.724741112452060964
0.724194770351581421
0.723553837557379355
0.722804716987687475
0.721932387154025169
0.720920416228462929
0.719750653583892915
0.718403501780380619
0.716858022497914898
0.715091505115254406
0.713079987624573774
0.710797728923357408
0.708218095709262978
0.705313021224592129
0.702054081161872111
0.698411857240372552
0.694355970886748540
0.689856612259230037
0.684883980089678710
0.679408515092819318
0.673402744087242207
0.666840054908127409
0.659694803835331171
0.651944451800795880
0.643570416891858458
0.634555970055141374
0.624889272151979924
0.614560810107685559
0.603566778257384099
0.591909853221666248
0.579596674448896737
0.566636803099688691
0.553050288411034382
0.538860586324795356
0.524093965206916171
0.508787873760381347
0.492982515114267084
0.476721128650909629
0.460054235653760997
0.443037321942255381
0.425728106992283891
0.408188072135323134
0.390481279663227787
0.372673670920796554
0.354832329079203518
0.337024720336772162
0.319317927864676844
0.301777893007716109
0.284468678057744619
0.267451764346239003
0.250784871349090371
0.234523484885732945
0.218718126239618653
0.203411072097783536
0.188646340616486453
0.174455711588965647
0.160869196900311338
0.147909325551103263
0.135596146778333701
0.123939221742615974
0.112945872176743873
0.102617367649062037
0.092950029944858626
0.083935583108141521
0.075561548199204128
0.067811196164668792
0.060665945091872605
0.054103255912757757
0.048097484907180733
0.042622019910321283
0.037649387740769946
0.033150029113251453
0.029094142759627419
0.025451918838127874
0.022192978775407818
0.019287904290737051
0.016708271076642612
0.014426012375426204
0.012414494884745526
0.010647977502085065
0.009102498219619392
0.007755346416107019
0.006585653388819443
0.005573552730465155
0.004701283012312537
0.003952162442620714
0.003311229648418594
0.002764887547939097
0.002300896168786294
0.001908296502925320
0.001577308765960374
0.001299343236193218
0.001066718364250956
0.000872766938095177
0.000711643438545167
0.000578306809385767
0.000468340608875911
0.000377998077200604
0.000304043075159574
0.000243723734775352
0.000194705074918235
0.000155017067996194
0.000122996198263060
0.000097256800279555
0.000076641572221017
0.000060190104443921
0.000047108825950095
0.000036744245348766
        );
    }
    /*    air
    {
        type            fixedValue;
        value           uniform 0.77;
    }*/
    outlet
    {
            type zeroGradient;

	    //        type            inletOutlet;
	    //inletValue      uniform 1;
	    //value           uniform 1;

    }
    frontAndBack
    {
        type            empty;
    }
}


// ************************************************************************* //
