/*--------------------------------*- C++ -*----------------------------------*\
  =========                 |
  \\      /  F ield         | OpenFOAM: The Open Source CFD Toolbox
   \\    /   O peration     | Website:  https://openfoam.org
    \\  /    A nd           | Version:  10
     \\/     M anipulation  |
\*---------------------------------------------------------------------------*/
FoamFile
{
    format      ascii;
    class       volScalarField;
    location    "0";
    object      O2;
}
// * * * * * * * * * * * * * * * * * * * * * * * * * * * * * * * * * * * * * //

dimensions      [0 0 0 0 0 0 0];

internalField   uniform 0;

boundaryField
{
    inlet
    {
        type            fixedValue;
        value           nonuniform List<scalar>
128
(
0.217296024269808801
0.217292928531667467
0.217289021136559156
0.217284107061474896
0.217277949265712809
0.217270260873647846
0.217260696197701401
0.217248841337782425
0.217234199399547452
0.217216180657766697
0.217194091476685804
0.217167106043533656
0.217134258994665058
0.217094431167990463
0.217046303366547306
0.216988369820207283
0.216918884464695209
0.216835850000250395
0.216736989322203262
0.216619719285132415
0.216481124449310400
0.216317931344608984
0.216126483875159016
0.215902720574735331
0.215642154504952189
0.215339877457173678
0.214990467815186428
0.214588071797880940
0.214126435101503483
0.213598774033589536
0.212997931110854416
0.212316217432087197
0.211545677594814077
0.210677928021559192
0.209704478334258333
0.208616541253726620
0.207405042660110934
0.206061078314428337
0.204575746538650968
0.202940217935350757
0.201146286229070746
0.199186002331142895
0.197051706428598954
0.194736666072136244
0.192235330819978235
0.189542703681856378
0.186655248291464677
0.183570123080869197
0.180286191292961661
0.176804252437836427
0.173126289727461221
0.169255159093098958
0.165196849268235105
0.160958366573584691
0.156547557404639044
0.151975607738282831
0.147254526302100652
0.142397228756523271
0.137418805875431737
0.132335831346141049
0.127165546052090616
0.121926314547935913
0.116637272324595317
0.111318116148575458
0.105988883851424564
0.100669727675404668
0.095380685452064080
0.090141453947909384
0.084971168653858951
0.079888194124568263
0.074909771243476729
0.070052473697899356
0.065331392261717169
0.060759155037007319
0.056348910304996552
0.052110150731764903
0.048051840906901051
0.044180710272538779
0.040502747562163558
0.037020808707038361
0.033737080718388138
0.030651942817948888
0.027764296318143622
0.025071669180021758
0.022570333927863758
0.020255293571401035
0.018120997668857109
0.016160713770929243
0.014366782064649259
0.012731253461349029
0.011245921685571658
0.009901957339889064
0.008690458746273372
0.007602521665741663
0.006629071978440792
0.005761322405185932
0.004990782567912809
0.004309068889145577
0.003708225966410443
0.003180564898496506
0.002718928202119063
0.002316532184813552
0.001967143337600222
0.001664827538465925
0.001404279425264672
0.001180516124841004
0.000989068655391020
0.000825875550689618
0.000687280714867566
0.000570010677796736
0.000471144205002503
0.000388115535304781
0.000318630179792720
0.000260696633452712
0.000212568832009543
0.000172741005334929
0.000139893956466335
0.000112908523314216
0.000090818066838901
0.000072800600452543
0.000058158662217572
0.000046303802298605
0.000036739126352155
0.000029050734287207
0.000022892938525088
0.000017978863440845
0.000014071468332546
0.000010975554461413
);
    }
    /*    air
    {
        type            fixedValue;
        value           uniform 0.23;
	}*/
    outlet
    {
      type zeroGradient;

      //  type            inletOutlet;
      // inletValue      uniform 0;
      //  value           uniform 0;
    }
    frontAndBack
    {
        type            empty;
    }
}


// ************************************************************************* //
