/*--------------------------------*- C++ -*----------------------------------*\
  =========                 |
  \\      /  F ield         | OpenFOAM: The Open Source CFD Toolbox
   \\    /   O peration     | Website:  https://openfoam.org
    \\  /    A nd           | Version:  10
     \\/     M anipulation  |
\*---------------------------------------------------------------------------*/
FoamFile
{
    format      ascii;
    class       volVectorField;
    location    "0";
    object      C;
}
// * * * * * * * * * * * * * * * * * * * * * * * * * * * * * * * * * * * * * //

dimensions      [0 1 0 0 0 0 0];

internalField   nonuniform List<vector> 
49152
(
(0.00015625 3.90625e-05 0)
(0.00046875 3.90625e-05 1.20467e-20)
(0.00078125 3.90625e-05 0)
(0.00109375 3.90625e-05 -5.75547e-19)
(0.00140625 3.90625e-05 -5.75547e-19)
(0.00171875 3.90625e-05 0)
(0.00203125 3.90625e-05 0)
(0.00234375 3.90625e-05 0)
(0.00265625 3.90625e-05 0)
(0.00296875 3.90625e-05 0)
(0.00328125 3.90625e-05 0)
(0.00359375 3.90625e-05 0)
(0.00390625 3.90625e-05 0)
(0.00421875 3.90625e-05 0)
(0.00453125 3.90625e-05 0)
(0.00484375 3.90625e-05 0)
(0.00515625 3.90625e-05 0)
(0.00546875 3.90625e-05 0)
(0.00578125 3.90625e-05 0)
(0.00609375 3.90625e-05 0)
(0.00640625 3.90625e-05 0)
(0.00671875 3.90625e-05 0)
(0.00703125 3.90625e-05 0)
(0.00734375 3.90625e-05 1.20467e-20)
(0.00765625 3.90625e-05 0)
(0.00796875 3.90625e-05 0)
(0.00828125 3.90625e-05 0)
(0.00859375 3.90625e-05 0)
(0.00890625 3.90625e-05 -1.20467e-20)
(0.00921875 3.90625e-05 0)
(0.00953125 3.90625e-05 0)
(0.00984375 3.90625e-05 0)
(0.0101563 3.90625e-05 0)
(0.0104688 3.90625e-05 0)
(0.0107812 3.90625e-05 -1.20467e-20)
(0.0110937 3.90625e-05 0)
(0.0114062 3.90625e-05 0)
(0.0117188 3.90625e-05 0)
(0.0120313 3.90625e-05 0)
(0.0123438 3.90625e-05 0)
(0.0126563 3.90625e-05 -1.20467e-20)
(0.0129688 3.90625e-05 0)
(0.0132813 3.90625e-05 0)
(0.0135937 3.90625e-05 0)
(0.0139063 3.90625e-05 0)
(0.0142188 3.90625e-05 0)
(0.0145312 3.90625e-05 5.635e-19)
(0.0148437 3.90625e-05 0)
(0.0151563 3.90625e-05 0)
(0.0154688 3.90625e-05 0)
(0.0157813 3.90625e-05 0)
(0.0160938 3.90625e-05 0)
(0.0164063 3.90625e-05 0)
(0.0167187 3.90625e-05 0)
(0.0170312 3.90625e-05 0)
(0.0173438 3.90625e-05 0)
(0.0176563 3.90625e-05 0)
(0.0179687 3.90625e-05 0)
(0.0182812 3.90625e-05 0)
(0.0185938 3.90625e-05 0)
(0.0189062 3.90625e-05 0)
(0.0192187 3.90625e-05 0)
(0.0195312 3.90625e-05 0)
(0.0198437 3.90625e-05 0)
(0.0201562 3.90625e-05 0)
(0.0204688 3.90625e-05 0)
(0.0207812 3.90625e-05 0)
(0.0210938 3.90625e-05 0)
(0.0214063 3.90625e-05 5.635e-19)
(0.0217187 3.90625e-05 0)
(0.0220312 3.90625e-05 -2.87774e-19)
(0.0223437 3.90625e-05 2.87774e-19)
(0.0226562 3.90625e-05 -5.75547e-19)
(0.0229687 3.90625e-05 0)
(0.0232812 3.90625e-05 -2.87774e-19)
(0.0235938 3.90625e-05 2.87774e-19)
(0.0239062 3.90625e-05 -5.75547e-19)
(0.0242187 3.90625e-05 0)
(0.0245313 3.90625e-05 -2.87774e-19)
(0.0248437 3.90625e-05 2.87774e-19)
(0.0251563 3.90625e-05 -5.75547e-19)
(0.0254688 3.90625e-05 0)
(0.0257812 3.90625e-05 0)
(0.0260937 3.90625e-05 0)
(0.0264062 3.90625e-05 0)
(0.0267188 3.90625e-05 0)
(0.0270312 3.90625e-05 0)
(0.0273438 3.90625e-05 0)
(0.0276563 3.90625e-05 0)
(0.0279688 3.90625e-05 0)
(0.0282813 3.90625e-05 0)
(0.0285937 3.90625e-05 0)
(0.0289063 3.90625e-05 0)
(0.0292188 3.90625e-05 5.635e-19)
(0.0295313 3.90625e-05 0)
(0.0298437 3.90625e-05 -2.87774e-19)
(0.0301563 3.90625e-05 2.87774e-19)
(0.0304687 3.90625e-05 -5.75547e-19)
(0.0307812 3.90625e-05 0)
(0.0310937 3.90625e-05 -2.87774e-19)
(0.0314062 3.90625e-05 -2.87774e-19)
(0.0317187 3.90625e-05 -2.87774e-19)
(0.0320312 3.90625e-05 -5.75547e-19)
(0.0323437 3.90625e-05 -2.87774e-19)
(0.0326562 3.90625e-05 -2.87774e-19)
(0.0329687 3.90625e-05 -2.87774e-19)
(0.0332813 3.90625e-05 -5.75547e-19)
(0.0335937 3.90625e-05 -2.87774e-19)
(0.0339062 3.90625e-05 -2.87774e-19)
(0.0342188 3.90625e-05 -2.87774e-19)
(0.0345312 3.90625e-05 -5.75547e-19)
(0.0348438 3.90625e-05 -2.87774e-19)
(0.0351562 3.90625e-05 0)
(0.0354688 3.90625e-05 -2.87774e-19)
(0.0357812 3.90625e-05 -2.87774e-19)
(0.0360938 3.90625e-05 -5.75547e-19)
(0.0364062 3.90625e-05 -2.87774e-19)
(0.0367188 3.90625e-05 -2.87774e-19)
(0.0370313 3.90625e-05 -2.87774e-19)
(0.0373438 3.90625e-05 -5.75547e-19)
(0.0376563 3.90625e-05 -2.87774e-19)
(0.0379687 3.90625e-05 -2.87774e-19)
(0.0382813 3.90625e-05 -2.87774e-19)
(0.0385937 3.90625e-05 -5.75547e-19)
(0.0389062 3.90625e-05 -2.87774e-19)
(0.0392188 3.90625e-05 -2.87774e-19)
(0.0395313 3.90625e-05 -2.87774e-19)
(0.0398437 3.90625e-05 -5.75547e-19)
(0.00015625 0.000117187 -1.20467e-20)
(0.00046875 0.000117188 0)
(0.00078125 0.000117188 -2.40934e-20)
(0.00109375 0.000117187 -2.9982e-19)
(0.00140625 0.000117188 -2.9982e-19)
(0.00171875 0.000117188 -3.23914e-19)
(0.00203125 0.000117187 -5.75547e-19)
(0.00234375 0.000117188 2.9982e-19)
(0.00265625 0.000117187 2.9982e-19)
(0.00296875 0.000117187 -5.75547e-19)
(0.00328125 0.000117187 2.9982e-19)
(0.00359375 0.000117187 0)
(0.00390625 0.000117188 -5.75547e-19)
(0.00421875 0.000117188 -5.75547e-19)
(0.00453125 0.000117187 -2.40934e-20)
(0.00484375 0.000117188 -5.75547e-19)
(0.00515625 0.000117188 -5.75547e-19)
(0.00546875 0.000117187 0)
(0.00578125 0.000117187 -5.75547e-19)
(0.00609375 0.000117188 -5.75547e-19)
(0.00640625 0.000117187 0)
(0.00671875 0.000117188 -5.75547e-19)
(0.00703125 0.000117188 -5.75547e-19)
(0.00734375 0.000117188 2.40934e-20)
(0.00765625 0.000117188 -5.75547e-19)
(0.00796875 0.000117188 -5.75547e-19)
(0.00828125 0.000117188 -5.75547e-19)
(0.00859375 0.000117188 -5.75547e-19)
(0.00890625 0.000117187 -5.99641e-19)
(0.00921875 0.000117188 -5.75547e-19)
(0.00953125 0.000117188 -5.75547e-19)
(0.00984375 0.000117188 -5.75547e-19)
(0.0101563 0.000117188 -5.75547e-19)
(0.0104688 0.000117188 -5.75547e-19)
(0.0107812 0.000117187 -5.99641e-19)
(0.0110937 0.000117188 -5.75547e-19)
(0.0114062 0.000117187 -5.75547e-19)
(0.0117188 0.000117187 -5.75547e-19)
(0.0120313 0.000117188 -5.75547e-19)
(0.0123438 0.000117188 -5.75547e-19)
(0.0126563 0.000117187 -5.99641e-19)
(0.0129688 0.000117188 -5.75547e-19)
(0.0132812 0.000117188 -5.75547e-19)
(0.0135937 0.000117187 -5.75547e-19)
(0.0139063 0.000117188 -5.75547e-19)
(0.0142187 0.000117188 -5.75547e-19)
(0.0145313 0.000117187 0)
(0.0148438 0.000117188 -5.75547e-19)
(0.0151563 0.000117188 -5.75547e-19)
(0.0154687 0.000117188 -5.75547e-19)
(0.0157813 0.000117188 -5.75547e-19)
(0.0160938 0.000117188 -5.75547e-19)
(0.0164063 0.000117188 -5.75547e-19)
(0.0167188 0.000117188 -5.75547e-19)
(0.0170313 0.000117188 -5.75547e-19)
(0.0173438 0.000117188 -5.75547e-19)
(0.0176563 0.000117187 0)
(0.0179687 0.000117188 -5.75547e-19)
(0.0182812 0.000117188 -5.75547e-19)
(0.0185937 0.000117187 -5.75547e-19)
(0.0189062 0.000117188 -5.75547e-19)
(0.0192187 0.000117188 -5.75547e-19)
(0.0195312 0.000117188 -5.75547e-19)
(0.0198438 0.000117188 -5.75547e-19)
(0.0201563 0.000117188 -5.75547e-19)
(0.0204688 0.000117188 -5.75547e-19)
(0.0207813 0.000117188 -5.75547e-19)
(0.0210938 0.000117188 -5.75547e-19)
(0.0214063 0.000117188 2.9982e-19)
(0.0217188 0.000117188 0)
(0.0220312 0.000117187 -8.75367e-19)
(0.0223438 0.000117187 0)
(0.0226563 0.000117187 -5.75547e-19)
(0.0229687 0.000117188 0)
(0.0232812 0.000117187 -8.75367e-19)
(0.0235938 0.000117187 0)
(0.0239063 0.000117188 -5.75547e-19)
(0.0242188 0.000117188 0)
(0.0245313 0.000117187 -8.75367e-19)
(0.0248437 0.000117187 0)
(0.0251563 0.000117188 -5.75547e-19)
(0.0254688 0.000117187 0)
(0.0257813 0.000117188 -5.75547e-19)
(0.0260937 0.000117188 -5.75547e-19)
(0.0264063 0.000117188 -5.75547e-19)
(0.0267187 0.000117187 -5.75547e-19)
(0.0270312 0.000117187 -5.75547e-19)
(0.0273438 0.000117187 -5.75547e-19)
(0.0276563 0.000117188 -5.75547e-19)
(0.0279688 0.000117188 -5.75547e-19)
(0.0282812 0.000117187 -5.75547e-19)
(0.0285937 0.000117188 -5.75547e-19)
(0.0289062 0.000117187 -5.75547e-19)
(0.0292188 0.000117188 2.9982e-19)
(0.0295313 0.000117188 0)
(0.0298437 0.000117187 -8.75367e-19)
(0.0301562 0.000117187 0)
(0.0304687 0.000117187 -5.75547e-19)
(0.0307812 0.000117188 0)
(0.0310937 0.000117187 -8.75367e-19)
(0.0314062 0.000117187 0)
(0.0317188 0.000117188 -2.9982e-19)
(0.0320313 0.000117187 0)
(0.0323437 0.000117188 -2.9982e-19)
(0.0326563 0.000117187 0)
(0.0329688 0.000117188 -2.9982e-19)
(0.0332812 0.000117188 0)
(0.0335937 0.000117188 -2.9982e-19)
(0.0339063 0.000117187 0)
(0.0342188 0.000117188 -2.9982e-19)
(0.0345313 0.000117188 0)
(0.0348438 0.000117188 -2.9982e-19)
(0.0351562 0.000117187 0)
(0.0354687 0.000117187 0)
(0.0357813 0.000117188 -2.9982e-19)
(0.0360938 0.000117188 0)
(0.0364062 0.000117188 -2.9982e-19)
(0.0367188 0.000117187 0)
(0.0370313 0.000117188 -2.9982e-19)
(0.0373437 0.000117188 0)
(0.0376563 0.000117188 -2.9982e-19)
(0.0379688 0.000117187 0)
(0.0382812 0.000117188 -2.9982e-19)
(0.0385937 0.000117188 0)
(0.0389063 0.000117188 -2.9982e-19)
(0.0392187 0.000117187 0)
(0.0395313 0.000117188 -2.9982e-19)
(0.0398437 0.000117188 0)
(0.00015625 0.000195313 0)
(0.00046875 0.000195312 2.40934e-20)
(0.00078125 0.000195312 0)
(0.00109375 0.000195313 2.40934e-20)
(0.00140625 0.000195313 2.40934e-20)
(0.00171875 0.000195313 0)
(0.00203125 0.000195312 0)
(0.00234375 0.000195312 0)
(0.00265625 0.000195312 0)
(0.00296875 0.000195313 0)
(0.00328125 0.000195313 0)
(0.00359375 0.000195312 5.99641e-19)
(0.00390625 0.000195312 0)
(0.00421875 0.000195312 0)
(0.00453125 0.000195312 -2.40934e-20)
(0.00484375 0.000195312 0)
(0.00515625 0.000195312 0)
(0.00546875 0.000195312 0)
(0.00578125 0.000195312 0)
(0.00609375 0.000195313 0)
(0.00640625 0.000195313 0)
(0.00671875 0.000195312 0)
(0.00703125 0.000195312 0)
(0.00734375 0.000195312 2.40934e-20)
(0.00765625 0.000195312 0)
(0.00796875 0.000195312 0)
(0.00828125 0.000195312 0)
(0.00859375 0.000195312 0)
(0.00890625 0.000195313 0)
(0.00921875 0.000195312 0)
(0.00953125 0.000195312 0)
(0.00984375 0.000195312 0)
(0.0101563 0.000195312 0)
(0.0104688 0.000195313 0)
(0.0107812 0.000195313 0)
(0.0110937 0.000195312 0)
(0.0114062 0.000195312 0)
(0.0117187 0.000195312 0)
(0.0120312 0.000195312 0)
(0.0123437 0.000195312 0)
(0.0126562 0.000195313 0)
(0.0129687 0.000195313 0)
(0.0132812 0.000195312 0)
(0.0135937 0.000195312 0)
(0.0139063 0.000195312 0)
(0.0142188 0.000195312 0)
(0.0145312 0.000195313 0)
(0.0148437 0.000195312 0)
(0.0151562 0.000195312 0)
(0.0154687 0.000195312 0)
(0.0157813 0.000195312 0)
(0.0160937 0.000195312 0)
(0.0164063 0.000195312 0)
(0.0167188 0.000195312 0)
(0.0170313 0.000195312 0)
(0.0173438 0.000195312 0)
(0.0176562 0.000195312 2.9982e-19)
(0.0179688 0.000195312 0)
(0.0182813 0.000195312 0)
(0.0185937 0.000195312 0)
(0.0189062 0.000195312 0)
(0.0192187 0.000195312 0)
(0.0195312 0.000195312 0)
(0.0198437 0.000195312 0)
(0.0201563 0.000195312 0)
(0.0204688 0.000195312 0)
(0.0207813 0.000195312 0)
(0.0210938 0.000195312 0)
(0.0214063 0.000195312 2.9982e-19)
(0.0217187 0.000195312 0)
(0.0220312 0.000195313 5.75547e-19)
(0.0223438 0.000195313 0)
(0.0226562 0.000195312 0)
(0.0229687 0.000195312 0)
(0.0232812 0.000195313 5.75547e-19)
(0.0235937 0.000195313 0)
(0.0239062 0.000195312 0)
(0.0242188 0.000195312 0)
(0.0245313 0.000195313 5.75547e-19)
(0.0248438 0.000195313 0)
(0.0251563 0.000195312 0)
(0.0254687 0.000195312 2.9982e-19)
(0.0257812 0.000195312 0)
(0.0260937 0.000195312 0)
(0.0264062 0.000195312 0)
(0.0267187 0.000195312 0)
(0.0270312 0.000195312 0)
(0.0273437 0.000195312 0)
(0.0276562 0.000195312 0)
(0.0279688 0.000195312 0)
(0.0282812 0.000195312 0)
(0.0285938 0.000195312 0)
(0.0289062 0.000195312 0)
(0.0292187 0.000195312 2.9982e-19)
(0.0295312 0.000195312 0)
(0.0298437 0.000195313 5.75547e-19)
(0.0301562 0.000195313 0)
(0.0304687 0.000195312 0)
(0.0307812 0.000195312 0)
(0.0310937 0.000195313 5.75547e-19)
(0.0314063 0.000195313 0)
(0.0317188 0.000195313 5.75547e-19)
(0.0320313 0.000195312 0)
(0.0323437 0.000195313 5.75547e-19)
(0.0326562 0.000195313 0)
(0.0329687 0.000195313 5.75547e-19)
(0.0332812 0.000195312 0)
(0.0335937 0.000195313 5.75547e-19)
(0.0339063 0.000195313 0)
(0.0342188 0.000195313 5.75547e-19)
(0.0345312 0.000195312 0)
(0.0348437 0.000195313 5.75547e-19)
(0.0351563 0.000195313 -2.9982e-19)
(0.0354687 0.000195313 0)
(0.0357813 0.000195313 5.75547e-19)
(0.0360938 0.000195312 0)
(0.0364062 0.000195313 5.75547e-19)
(0.0367188 0.000195313 0)
(0.0370312 0.000195313 5.75547e-19)
(0.0373437 0.000195312 0)
(0.0376562 0.000195313 5.75547e-19)
(0.0379687 0.000195313 0)
(0.0382813 0.000195313 5.75547e-19)
(0.0385937 0.000195312 0)
(0.0389062 0.000195313 5.75547e-19)
(0.0392187 0.000195313 0)
(0.0395313 0.000195313 5.75547e-19)
(0.0398437 0.000195312 0)
(0.00015625 0.000273437 5.75547e-19)
(0.00046875 0.000273437 2.9982e-19)
(0.00078125 0.000273437 -2.40934e-20)
(0.00109375 0.000273437 0)
(0.00140625 0.000273437 -5.75547e-19)
(0.00171875 0.000273438 2.9982e-19)
(0.00203125 0.000273438 -2.9982e-19)
(0.00234375 0.000273437 -2.9982e-19)
(0.00265625 0.000273437 -2.9982e-19)
(0.00296875 0.000273438 -2.9982e-19)
(0.00328125 0.000273437 -2.9982e-19)
(0.00359375 0.000273438 0)
(0.00390625 0.000273438 -2.9982e-19)
(0.00421875 0.000273438 -2.9982e-19)
(0.00453125 0.000273437 0)
(0.00484375 0.000273438 -2.9982e-19)
(0.00515625 0.000273437 -2.9982e-19)
(0.00546875 0.000273437 0)
(0.00578125 0.000273437 -2.9982e-19)
(0.00609375 0.000273437 -2.9982e-19)
(0.00640625 0.000273438 0)
(0.00671875 0.000273437 -2.9982e-19)
(0.00703125 0.000273438 -2.9982e-19)
(0.00734375 0.000273437 0)
(0.00765625 0.000273438 -2.9982e-19)
(0.00796875 0.000273437 -2.9982e-19)
(0.00828125 0.000273437 -2.9982e-19)
(0.00859375 0.000273437 -2.9982e-19)
(0.00890625 0.000273437 0)
(0.00921875 0.000273437 -2.9982e-19)
(0.00953125 0.000273437 -2.9982e-19)
(0.00984375 0.000273437 -2.9982e-19)
(0.0101562 0.000273437 -2.9982e-19)
(0.0104688 0.000273438 -2.9982e-19)
(0.0107812 0.000273437 0)
(0.0110937 0.000273437 -2.9982e-19)
(0.0114062 0.000273437 -2.9982e-19)
(0.0117188 0.000273437 -2.9982e-19)
(0.0120312 0.000273437 -2.9982e-19)
(0.0123437 0.000273437 -2.9982e-19)
(0.0126562 0.000273437 0)
(0.0129687 0.000273438 -2.9982e-19)
(0.0132812 0.000273437 -2.9982e-19)
(0.0135937 0.000273437 -2.9982e-19)
(0.0139062 0.000273437 -2.9982e-19)
(0.0142187 0.000273437 -2.9982e-19)
(0.0145312 0.000273437 0)
(0.0148437 0.000273437 -2.9982e-19)
(0.0151562 0.000273437 -2.9982e-19)
(0.0154687 0.000273437 -2.9982e-19)
(0.0157812 0.000273437 -2.9982e-19)
(0.0160937 0.000273437 -2.9982e-19)
(0.0164063 0.000273437 -2.9982e-19)
(0.0167187 0.000273437 -2.9982e-19)
(0.0170313 0.000273437 -2.9982e-19)
(0.0173437 0.000273437 -2.9982e-19)
(0.0176562 0.000273437 8.75367e-19)
(0.0179687 0.000273437 -2.9982e-19)
(0.0182812 0.000273437 -2.9982e-19)
(0.0185938 0.000273438 -2.9982e-19)
(0.0189062 0.000273437 -2.9982e-19)
(0.0192187 0.000273438 -2.9982e-19)
(0.0195312 0.000273437 -2.9982e-19)
(0.0198437 0.000273437 -2.9982e-19)
(0.0201562 0.000273437 -2.9982e-19)
(0.0204687 0.000273437 -2.9982e-19)
(0.0207812 0.000273437 -2.9982e-19)
(0.0210938 0.000273438 -2.9982e-19)
(0.0214062 0.000273437 5.75547e-19)
(0.0217187 0.000273437 -2.9982e-19)
(0.0220312 0.000273437 -2.9982e-19)
(0.0223437 0.000273437 -2.9982e-19)
(0.0226562 0.000273437 0)
(0.0229687 0.000273437 -2.9982e-19)
(0.0232812 0.000273438 -2.9982e-19)
(0.0235937 0.000273437 -2.9982e-19)
(0.0239063 0.000273437 0)
(0.0242188 0.000273438 -2.9982e-19)
(0.0245312 0.000273437 -2.9982e-19)
(0.0248437 0.000273437 -2.9982e-19)
(0.0251563 0.000273437 0)
(0.0254687 0.000273437 8.75367e-19)
(0.0257812 0.000273437 -2.9982e-19)
(0.0260937 0.000273437 -2.9982e-19)
(0.0264062 0.000273437 -2.9982e-19)
(0.0267187 0.000273437 -2.9982e-19)
(0.0270312 0.000273437 -2.9982e-19)
(0.0273438 0.000273438 -2.9982e-19)
(0.0276563 0.000273437 -2.9982e-19)
(0.0279687 0.000273437 -2.9982e-19)
(0.0282812 0.000273438 -2.9982e-19)
(0.0285937 0.000273437 -2.9982e-19)
(0.0289062 0.000273437 -2.9982e-19)
(0.0292187 0.000273437 5.75547e-19)
(0.0295313 0.000273438 -2.9982e-19)
(0.0298437 0.000273437 -2.9982e-19)
(0.0301562 0.000273437 -2.9982e-19)
(0.0304687 0.000273437 0)
(0.0307812 0.000273438 -2.9982e-19)
(0.0310937 0.000273437 -2.9982e-19)
(0.0314062 0.000273437 0)
(0.0317187 0.000273437 -2.9982e-19)
(0.0320312 0.000273437 0)
(0.0323438 0.000273438 -2.9982e-19)
(0.0326562 0.000273437 0)
(0.0329688 0.000273437 -2.9982e-19)
(0.0332812 0.000273437 0)
(0.0335938 0.000273438 -2.9982e-19)
(0.0339062 0.000273437 0)
(0.0342187 0.000273437 -2.9982e-19)
(0.0345312 0.000273437 0)
(0.0348437 0.000273438 -2.9982e-19)
(0.0351562 0.000273437 -5.99641e-19)
(0.0354687 0.000273437 0)
(0.0357812 0.000273437 -2.9982e-19)
(0.0360938 0.000273437 0)
(0.0364062 0.000273437 -2.9982e-19)
(0.0367188 0.000273437 0)
(0.0370313 0.000273437 -2.9982e-19)
(0.0373437 0.000273437 0)
(0.0376562 0.000273437 -2.9982e-19)
(0.0379687 0.000273437 0)
(0.0382812 0.000273438 -2.9982e-19)
(0.0385937 0.000273437 0)
(0.0389062 0.000273438 -2.9982e-19)
(0.0392187 0.000273437 0)
(0.0395313 0.000273438 -2.9982e-19)
(0.0398437 0.000273437 0)
(0.00015625 0.000351562 5.75547e-19)
(0.00046875 0.000351562 2.9982e-19)
(0.00078125 0.000351562 -2.40934e-20)
(0.00109375 0.000351563 5.75547e-19)
(0.00140625 0.000351562 0)
(0.00171875 0.000351562 2.9982e-19)
(0.00203125 0.000351563 -2.9982e-19)
(0.00234375 0.000351562 0)
(0.00265625 0.000351562 0)
(0.00296875 0.000351563 -2.9982e-19)
(0.00328125 0.000351563 0)
(0.00359375 0.000351562 0)
(0.00390625 0.000351563 -2.9982e-19)
(0.00421875 0.000351563 -2.9982e-19)
(0.00453125 0.000351563 0)
(0.00484375 0.000351563 -2.9982e-19)
(0.00515625 0.000351562 -2.9982e-19)
(0.00546875 0.000351562 0)
(0.00578125 0.000351563 -2.9982e-19)
(0.00609375 0.000351563 -2.9982e-19)
(0.00640625 0.000351563 0)
(0.00671875 0.000351563 -2.9982e-19)
(0.00703125 0.000351563 -2.9982e-19)
(0.00734375 0.000351563 0)
(0.00765625 0.000351563 -2.9982e-19)
(0.00796875 0.000351562 -2.9982e-19)
(0.00828125 0.000351563 -2.9982e-19)
(0.00859375 0.000351562 -2.9982e-19)
(0.00890625 0.000351563 0)
(0.00921875 0.000351562 -2.9982e-19)
(0.00953125 0.000351562 -2.9982e-19)
(0.00984375 0.000351563 -2.9982e-19)
(0.0101562 0.000351563 -2.9982e-19)
(0.0104688 0.000351563 -2.9982e-19)
(0.0107812 0.000351562 0)
(0.0110937 0.000351562 -2.9982e-19)
(0.0114062 0.000351563 -2.9982e-19)
(0.0117188 0.000351563 -2.9982e-19)
(0.0120312 0.000351563 -2.9982e-19)
(0.0123437 0.000351562 -2.9982e-19)
(0.0126562 0.000351562 0)
(0.0129687 0.000351563 -2.9982e-19)
(0.0132812 0.000351563 -2.9982e-19)
(0.0135937 0.000351563 -2.9982e-19)
(0.0139063 0.000351563 -2.9982e-19)
(0.0142188 0.000351563 -2.9982e-19)
(0.0145312 0.000351562 0)
(0.0148437 0.000351562 -2.9982e-19)
(0.0151562 0.000351563 -2.9982e-19)
(0.0154687 0.000351563 -2.9982e-19)
(0.0157812 0.000351563 -2.9982e-19)
(0.0160938 0.000351563 -2.9982e-19)
(0.0164063 0.000351562 -2.9982e-19)
(0.0167188 0.000351563 -2.9982e-19)
(0.0170313 0.000351563 -2.9982e-19)
(0.0173437 0.000351562 -2.9982e-19)
(0.0176563 0.000351563 5.75547e-19)
(0.0179687 0.000351563 -2.9982e-19)
(0.0182812 0.000351562 -2.9982e-19)
(0.0185937 0.000351562 -2.9982e-19)
(0.0189062 0.000351562 -2.9982e-19)
(0.0192187 0.000351562 -2.9982e-19)
(0.0195312 0.000351563 -2.9982e-19)
(0.0198438 0.000351563 -2.9982e-19)
(0.0201562 0.000351562 -2.9982e-19)
(0.0204687 0.000351563 -2.9982e-19)
(0.0207812 0.000351562 -2.9982e-19)
(0.0210938 0.000351563 -2.9982e-19)
(0.0214063 0.000351563 5.75547e-19)
(0.0217187 0.000351563 -2.9982e-19)
(0.0220312 0.000351562 0)
(0.0223437 0.000351563 -2.9982e-19)
(0.0226562 0.000351563 0)
(0.0229687 0.000351562 -2.9982e-19)
(0.0232812 0.000351563 0)
(0.0235938 0.000351563 -2.9982e-19)
(0.0239062 0.000351563 0)
(0.0242188 0.000351563 -2.9982e-19)
(0.0245312 0.000351562 0)
(0.0248437 0.000351563 -2.9982e-19)
(0.0251563 0.000351563 0)
(0.0254687 0.000351563 5.75547e-19)
(0.0257812 0.000351562 -2.9982e-19)
(0.0260937 0.000351563 -2.9982e-19)
(0.0264062 0.000351563 -2.9982e-19)
(0.0267187 0.000351563 -2.9982e-19)
(0.0270312 0.000351562 -2.9982e-19)
(0.0273438 0.000351563 -2.9982e-19)
(0.0276563 0.000351562 -2.9982e-19)
(0.0279688 0.000351563 -2.9982e-19)
(0.0282812 0.000351563 -2.9982e-19)
(0.0285937 0.000351563 -2.9982e-19)
(0.0289062 0.000351563 -2.9982e-19)
(0.0292187 0.000351563 5.75547e-19)
(0.0295312 0.000351563 -2.9982e-19)
(0.0298437 0.000351562 0)
(0.0301562 0.000351563 -2.9982e-19)
(0.0304687 0.000351563 0)
(0.0307812 0.000351563 -2.9982e-19)
(0.0310937 0.000351562 0)
(0.0314063 0.000351562 0)
(0.0317188 0.000351563 0)
(0.0320312 0.000351563 0)
(0.0323437 0.000351563 0)
(0.0326562 0.000351563 0)
(0.0329688 0.000351563 0)
(0.0332812 0.000351563 0)
(0.0335938 0.000351563 0)
(0.0339063 0.000351563 0)
(0.0342188 0.000351563 0)
(0.0345312 0.000351563 0)
(0.0348437 0.000351563 0)
(0.0351562 0.000351563 -5.75547e-19)
(0.0354687 0.000351562 0)
(0.0357813 0.000351563 0)
(0.0360937 0.000351563 0)
(0.0364063 0.000351563 0)
(0.0367188 0.000351562 0)
(0.0370313 0.000351563 0)
(0.0373437 0.000351563 0)
(0.0376562 0.000351563 0)
(0.0379687 0.000351562 0)
(0.0382812 0.000351563 0)
(0.0385937 0.000351563 0)
(0.0389062 0.000351563 0)
(0.0392187 0.000351562 0)
(0.0395312 0.000351563 0)
(0.0398437 0.000351563 0)
(0.00015625 0.000429687 0)
(0.00046875 0.000429687 3.23914e-19)
(0.00078125 0.000429687 0)
(0.00109375 0.000429688 -2.9982e-19)
(0.00140625 0.000429688 -2.9982e-19)
(0.00171875 0.000429688 0)
(0.00203125 0.000429687 -2.9982e-19)
(0.00234375 0.000429688 0)
(0.00265625 0.000429687 0)
(0.00296875 0.000429687 -2.9982e-19)
(0.00328125 0.000429688 0)
(0.00359375 0.000429687 0)
(0.00390625 0.000429687 -2.9982e-19)
(0.00421875 0.000429687 -2.9982e-19)
(0.00453125 0.000429688 0)
(0.00484375 0.000429688 -2.9982e-19)
(0.00515625 0.000429688 -2.9982e-19)
(0.00546875 0.000429688 0)
(0.00578125 0.000429687 -2.9982e-19)
(0.00609375 0.000429687 -2.9982e-19)
(0.00640625 0.000429688 0)
(0.00671875 0.000429688 -2.9982e-19)
(0.00703125 0.000429688 -2.9982e-19)
(0.00734375 0.000429688 -2.40934e-20)
(0.00765625 0.000429687 -2.9982e-19)
(0.00796875 0.000429687 -2.9982e-19)
(0.00828125 0.000429688 -2.9982e-19)
(0.00859375 0.000429687 -2.9982e-19)
(0.00890625 0.000429688 2.9982e-19)
(0.00921875 0.000429687 -2.9982e-19)
(0.00953125 0.000429688 -2.9982e-19)
(0.00984375 0.000429688 -2.9982e-19)
(0.0101562 0.000429687 -2.9982e-19)
(0.0104687 0.000429687 -2.9982e-19)
(0.0107812 0.000429687 2.9982e-19)
(0.0110937 0.000429688 -2.9982e-19)
(0.0114062 0.000429688 -2.9982e-19)
(0.0117188 0.000429688 -2.9982e-19)
(0.0120312 0.000429688 -2.9982e-19)
(0.0123438 0.000429688 -2.9982e-19)
(0.0126562 0.000429687 2.9982e-19)
(0.0129687 0.000429687 -2.9982e-19)
(0.0132812 0.000429688 -2.9982e-19)
(0.0135937 0.000429687 -2.9982e-19)
(0.0139062 0.000429688 -2.9982e-19)
(0.0142188 0.000429687 -2.9982e-19)
(0.0145312 0.000429688 -2.9982e-19)
(0.0148437 0.000429688 -2.9982e-19)
(0.0151563 0.000429688 -2.9982e-19)
(0.0154687 0.000429688 -2.9982e-19)
(0.0157813 0.000429687 -2.9982e-19)
(0.0160938 0.000429687 -2.9982e-19)
(0.0164063 0.000429687 -2.9982e-19)
(0.0167188 0.000429687 -2.9982e-19)
(0.0170313 0.000429687 -2.9982e-19)
(0.0173437 0.000429687 -2.9982e-19)
(0.0176563 0.000429688 0)
(0.0179687 0.000429687 -2.9982e-19)
(0.0182812 0.000429687 -2.9982e-19)
(0.0185937 0.000429687 -2.9982e-19)
(0.0189062 0.000429688 -2.9982e-19)
(0.0192187 0.000429688 -2.9982e-19)
(0.0195312 0.000429687 -2.9982e-19)
(0.0198438 0.000429688 -2.9982e-19)
(0.0201562 0.000429687 -2.9982e-19)
(0.0204688 0.000429688 -2.9982e-19)
(0.0207813 0.000429687 -2.9982e-19)
(0.0210938 0.000429687 -2.9982e-19)
(0.0214063 0.000429688 0)
(0.0217187 0.000429688 2.75727e-19)
(0.0220312 0.000429687 -2.9982e-19)
(0.0223437 0.000429687 2.75727e-19)
(0.0226562 0.000429688 -5.99641e-19)
(0.0229687 0.000429688 2.75727e-19)
(0.0232812 0.000429687 -2.9982e-19)
(0.0235938 0.000429688 2.75727e-19)
(0.0239063 0.000429688 -5.99641e-19)
(0.0242187 0.000429687 2.75727e-19)
(0.0245312 0.000429687 -2.9982e-19)
(0.0248438 0.000429688 2.75727e-19)
(0.0251562 0.000429687 -5.99641e-19)
(0.0254687 0.000429687 0)
(0.0257812 0.000429687 -2.9982e-19)
(0.0260937 0.000429687 -2.9982e-19)
(0.0264063 0.000429687 -2.9982e-19)
(0.0267187 0.000429688 -2.9982e-19)
(0.0270312 0.000429687 -2.9982e-19)
(0.0273438 0.000429687 -2.9982e-19)
(0.0276563 0.000429687 -2.9982e-19)
(0.0279688 0.000429687 -2.9982e-19)
(0.0282812 0.000429687 -2.9982e-19)
(0.0285937 0.000429687 -2.9982e-19)
(0.0289063 0.000429687 -2.9982e-19)
(0.0292187 0.000429687 0)
(0.0295312 0.000429688 2.75727e-19)
(0.0298437 0.000429687 -2.9982e-19)
(0.0301562 0.000429688 2.75727e-19)
(0.0304687 0.000429687 -5.99641e-19)
(0.0307812 0.000429688 2.75727e-19)
(0.0310937 0.000429687 -2.9982e-19)
(0.0314063 0.000429687 -2.40934e-20)
(0.0317188 0.000429688 2.75727e-19)
(0.0320312 0.000429687 -2.40934e-20)
(0.0323437 0.000429688 2.75727e-19)
(0.0326562 0.000429687 -2.40934e-20)
(0.0329687 0.000429688 2.75727e-19)
(0.0332813 0.000429687 -2.40934e-20)
(0.0335938 0.000429688 2.75727e-19)
(0.0339063 0.000429687 -2.40934e-20)
(0.0342187 0.000429688 2.75727e-19)
(0.0345313 0.000429688 -2.40934e-20)
(0.0348438 0.000429688 2.75727e-19)
(0.0351562 0.000429687 0)
(0.0354687 0.000429687 -2.40934e-20)
(0.0357813 0.000429688 2.75727e-19)
(0.0360937 0.000429687 -2.40934e-20)
(0.0364063 0.000429688 2.75727e-19)
(0.0367188 0.000429687 -2.40934e-20)
(0.0370313 0.000429688 2.75727e-19)
(0.0373438 0.000429687 -2.40934e-20)
(0.0376563 0.000429688 2.75727e-19)
(0.0379687 0.000429687 -2.40934e-20)
(0.0382813 0.000429688 2.75727e-19)
(0.0385937 0.000429687 -2.40934e-20)
(0.0389062 0.000429688 2.75727e-19)
(0.0392187 0.000429687 -2.40934e-20)
(0.0395313 0.000429688 2.75727e-19)
(0.0398438 0.000429687 -2.40934e-20)
(0.00015625 0.000507813 0)
(0.00046875 0.000507813 5.75547e-19)
(0.00078125 0.000507813 0)
(0.00109375 0.000507813 2.9982e-19)
(0.00140625 0.000507813 2.9982e-19)
(0.00171875 0.000507812 2.9982e-19)
(0.00203125 0.000507813 0)
(0.00234375 0.000507813 0)
(0.00265625 0.000507812 0)
(0.00296875 0.000507813 0)
(0.00328125 0.000507812 0)
(0.00359375 0.000507812 2.9982e-19)
(0.00390625 0.000507813 0)
(0.00421875 0.000507813 0)
(0.00453125 0.000507812 0)
(0.00484375 0.000507813 0)
(0.00515625 0.000507812 0)
(0.00546875 0.000507812 0)
(0.00578125 0.000507812 0)
(0.00609375 0.000507813 0)
(0.00640625 0.000507812 0)
(0.00671875 0.000507813 0)
(0.00703125 0.000507813 0)
(0.00734375 0.000507813 0)
(0.00765625 0.000507813 0)
(0.00796875 0.000507812 0)
(0.00828125 0.000507813 0)
(0.00859375 0.000507812 0)
(0.00890625 0.000507813 5.99641e-19)
(0.00921875 0.000507813 0)
(0.00953125 0.000507813 0)
(0.00984375 0.000507813 0)
(0.0101563 0.000507813 0)
(0.0104688 0.000507812 0)
(0.0107812 0.000507812 0)
(0.0110938 0.000507813 0)
(0.0114062 0.000507813 0)
(0.0117188 0.000507813 0)
(0.0120313 0.000507813 0)
(0.0123437 0.000507812 0)
(0.0126562 0.000507812 0)
(0.0129687 0.000507813 0)
(0.0132812 0.000507813 0)
(0.0135938 0.000507812 0)
(0.0139063 0.000507812 0)
(0.0142188 0.000507813 0)
(0.0145312 0.000507813 0)
(0.0148438 0.000507812 0)
(0.0151562 0.000507812 0)
(0.0154688 0.000507812 0)
(0.0157813 0.000507813 0)
(0.0160938 0.000507813 0)
(0.0164063 0.000507813 0)
(0.0167188 0.000507813 0)
(0.0170313 0.000507813 0)
(0.0173438 0.000507813 0)
(0.0176563 0.000507812 0)
(0.0179688 0.000507813 0)
(0.0182813 0.000507813 0)
(0.0185937 0.000507813 0)
(0.0189063 0.000507813 0)
(0.0192187 0.000507813 0)
(0.0195312 0.000507812 0)
(0.0198437 0.000507813 0)
(0.0201563 0.000507813 0)
(0.0204688 0.000507813 0)
(0.0207813 0.000507813 0)
(0.0210937 0.000507812 0)
(0.0214063 0.000507812 0)
(0.0217187 0.000507813 0)
(0.0220312 0.000507813 0)
(0.0223437 0.000507813 0)
(0.0226562 0.000507812 5.75547e-19)
(0.0229687 0.000507813 0)
(0.0232813 0.000507812 0)
(0.0235938 0.000507813 0)
(0.0239063 0.000507813 5.75547e-19)
(0.0242188 0.000507813 0)
(0.0245312 0.000507813 0)
(0.0248437 0.000507813 0)
(0.0251563 0.000507813 5.75547e-19)
(0.0254688 0.000507813 0)
(0.0257812 0.000507813 0)
(0.0260938 0.000507813 0)
(0.0264062 0.000507812 0)
(0.0267187 0.000507813 0)
(0.0270312 0.000507813 0)
(0.0273438 0.000507812 0)
(0.0276563 0.000507813 0)
(0.0279688 0.000507813 0)
(0.0282813 0.000507813 0)
(0.0285937 0.000507812 0)
(0.0289062 0.000507813 0)
(0.0292187 0.000507812 0)
(0.0295312 0.000507813 0)
(0.0298437 0.000507813 0)
(0.0301562 0.000507813 0)
(0.0304688 0.000507813 5.75547e-19)
(0.0307813 0.000507813 0)
(0.0310938 0.000507813 0)
(0.0314062 0.000507813 5.75547e-19)
(0.0317188 0.000507813 0)
(0.0320313 0.000507813 5.75547e-19)
(0.0323437 0.000507813 0)
(0.0326563 0.000507813 5.75547e-19)
(0.0329688 0.000507813 0)
(0.0332812 0.000507813 5.75547e-19)
(0.0335937 0.000507813 0)
(0.0339063 0.000507813 5.75547e-19)
(0.0342188 0.000507813 0)
(0.0345312 0.000507812 5.75547e-19)
(0.0348438 0.000507813 0)
(0.0351563 0.000507813 0)
(0.0354688 0.000507813 5.75547e-19)
(0.0357813 0.000507813 0)
(0.0360938 0.000507813 5.75547e-19)
(0.0364063 0.000507813 0)
(0.0367188 0.000507813 5.75547e-19)
(0.0370313 0.000507813 0)
(0.0373438 0.000507813 5.75547e-19)
(0.0376563 0.000507813 0)
(0.0379688 0.000507813 5.75547e-19)
(0.0382812 0.000507813 0)
(0.0385938 0.000507813 5.75547e-19)
(0.0389063 0.000507813 0)
(0.0392188 0.000507813 5.75547e-19)
(0.0395313 0.000507813 0)
(0.0398438 0.000507813 5.75547e-19)
(0.00015625 0.000585937 0)
(0.00046875 0.000585938 -2.9982e-19)
(0.00078125 0.000585938 0)
(0.00109375 0.000585938 2.9982e-19)
(0.00140625 0.000585937 0)
(0.00171875 0.000585938 0)
(0.00203125 0.000585937 0)
(0.00234375 0.000585938 0)
(0.00265625 0.000585937 0)
(0.00296875 0.000585937 0)
(0.00328125 0.000585938 0)
(0.00359375 0.000585938 0)
(0.00390625 0.000585937 0)
(0.00421875 0.000585937 0)
(0.00453125 0.000585938 0)
(0.00484375 0.000585937 0)
(0.00515625 0.000585937 0)
(0.00546875 0.000585938 0)
(0.00578125 0.000585937 0)
(0.00609375 0.000585937 0)
(0.00640625 0.000585938 0)
(0.00671875 0.000585937 0)
(0.00703125 0.000585937 0)
(0.00734375 0.000585937 0)
(0.00765625 0.000585937 0)
(0.00796875 0.000585937 0)
(0.00828125 0.000585937 0)
(0.00859375 0.000585937 0)