/*--------------------------------*- C++ -*----------------------------------*\
  =========                 |
  \\      /  F ield         | OpenFOAM: The Open Source CFD Toolbox
   \\    /   O peration     | Website:  https://openfoam.org
    \\  /    A nd           | Version:  10
     \\/     M anipulation  |
\*---------------------------------------------------------------------------*/
FoamFile
{
    format      ascii;
    class       volScalarField;
    location    "0";
    object      CH4;
}
// * * * * * * * * * * * * * * * * * * * * * * * * * * * * * * * * * * * * * //

dimensions      [0 0 0 0 0 0 0];

internalField   uniform 0.0;

boundaryField
{
    inlet
    {
        type            fixedValue;
        value           nonuniform List<scalar>
64
(
0.30601457582401137
0.3116303952494819
0.317295645708342
0.323009186134514
0.32876983258895115
0.3345763589088514
0.3404274974266538
0.3463219397585035
0.35225833766169085
0.35823530396039216
0.3642514135388595
0.3703052044010252
0.37639517879530837
0.3825198044032282
0.3886775155902538
0.3948667147171445
0.40108577350986
0.4073330344859535
0.4136068124351959
0.41990539595202103
0.4262270490172252
0.43257001262621375
0.43893250646094073
0.4453127306025618
0.45170886728169246
0.45811908266305096
0.4645415286611594
0.47097434478368033
0.47741565999888086
0.4838635946236411
0.4903162622283599
0.4967717715550587
0.5032282284449413
0.5096837377716401
0.5161364053763589
0.5225843400011191
0.5290256552163197
0.5354584713388406
0.541880917336949
0.5482911327183075
0.5546872693974382
0.5610674935390593
0.5674299873737862
0.5737729509827748
0.580094604047979
0.5863931875648041
0.5926669655140465
0.5989142264901399
0.6051332852828555
0.6113224844097462
0.6174801955967718
0.6236048212046916
0.6296947955989748
0.6357485864611405
0.6417646960396078
0.6477416623383092
0.6536780602414964
0.6595725025733462
0.6654236410911486
0.6712301674110488
0.676990813865486
0.682704354291658
0.6883696047505181
0.6939854241759886
);
    }
    /*    air
   / {
    /    type            fixedValue;
        value           uniform 0.0;
    }
    */
    outlet
    {
        type            inletOutlet;
        inletValue      uniform 0.0;
        value           uniform 0.0;

    }
    frontAndBack
    {
        type            empty;
    }
}


// ************************************************************************* //
