/*--------------------------------*- C++ -*----------------------------------*\
  =========                 |
  \\      /  F ield         | OpenFOAM: The Open Source CFD Toolbox
   \\    /   O peration     | Website:  https://openfoam.org
    \\  /    A nd           | Version:  10
     \\/     M anipulation  |
\*---------------------------------------------------------------------------*/
FoamFile
{
    format      ascii;
    class       volScalarField;
    location    "0";
    object      O2;
}
// * * * * * * * * * * * * * * * * * * * * * * * * * * * * * * * * * * * * * //

dimensions      [0 0 0 0 0 0 0];

internalField   uniform 0;

boundaryField
{
    inlet
    {
        type            fixedValue;
        value           nonuniform List<scalar>
64
(
0.159616647560477385
0.158325009092619163
0.157022001487081340
0.155707887189061780
0.154382938504541236
0.153047437450964178
0.151701675591869626
0.150345953855544195
0.148980582337811104
0.147605880089109803
0.146222174886062315
0.144829802987764204
0.143429108877079075
0.142020444987257514
0.140604171414241626
0.139180655615056765
0.137750272092732200
0.136313402068230695
0.134870433139904943
0.133421758931035163
0.131967778726038204
0.130508897095970838
0.129045523513983632
0.127578071961410786
0.126106960525210734
0.124632610987498279
0.123155448407933338
0.121675900699753524
0.120194398200257402
0.118711373236562547
0.117227259687477223
0.115742492542336499
0.114257507457663501
0.112772740312522777
0.111288626763437453
0.109805601799742607
0.108324099300246469
0.106844551592066662
0.105367389012501730
0.103893039474789275
0.102421928038589214
0.100954476486016361
0.099491102904029174
0.098032221273961796
0.096578241068964830
0.095129566860095057
0.093686597931769305
0.092249727907267823
0.090819344384943235
0.089395828585758374
0.087979555012742486
0.086570891122920932
0.085170197012235796
0.083777825113937685
0.082394119910890206
0.081019417662188884
0.079654046144455828
0.078298324408130374
0.076952562549035822
0.075617061495458776
0.074292112810938220
0.072977998512918660
0.071674990907380837
0.070383352439522622
);
    }
    /*    air
    {
        type            fixedValue;
        value           uniform 0.23;
	}*/
    outlet
    {
        type            inletOutlet;
        inletValue      uniform 0;
        value           uniform 0;
    }
    frontAndBack
    {
        type            empty;
    }
}


// ************************************************************************* //
